Grunge ROck MAChoS
 4968
    1I3C     I0    1   0.203   1.308   1.457
    1I3C     I1    2   0.503   0.826   1.664
    1I3C     I2    3   0.638   1.377   1.872
    1I3C     C0    4   0.462   1.032   1.672
    1I3C     C1    5   0.424   1.308   1.665
    1I3C     C2    6   0.542   1.115   1.750
    1I3C     C3    7   0.356   1.083   1.595
    1I3C     C4    8   0.523   1.252   1.748
    1I3C     C5    9   0.342   1.224   1.589
    1I3C     C6   10   0.650   1.053   1.836
    1I3C     C7   11   0.408   1.457   1.656
    1I3C     O0   12   0.604   1.010   1.949
    1I3C     O1   13   0.317   1.516   1.710
    1I3C     O2   14   0.766   1.045   1.800
    1I3C     O3   15   0.500   1.513   1.582
    1I3C     O4   16   0.499   0.183   1.566
    1I3C     H0   17   0.660   0.962   1.985
    1I3C     H1   18   0.484   1.593   1.575
    1I3C     H2   19   0.284   0.914   1.523
    1I3C     H3   20   0.207   1.033   1.475
    1I3C     H4   21   0.556   0.189   1.503
    1I3C     H5   22   0.535   0.209   1.638
    1I3C     N0   23   0.272   0.999   1.522
    2I3C     I0   24   0.203   1.308   3.356
    2I3C     I1   25   0.503   0.826   3.563
    2I3C     I2   26   0.638   1.377   3.771
    2I3C     C0   27   0.462   1.032   3.571
    2I3C     C1   28   0.424   1.308   3.564
    2I3C     C2   29   0.542   1.115   3.649
    2I3C     C3   30   0.356   1.083   3.495
    2I3C     C4   31   0.523   1.252   3.647
    2I3C     C5   32   0.342   1.224   3.489
    2I3C     C6   33   0.650   1.053   3.735
    2I3C     C7   34   0.408   1.457   3.555
    2I3C     O0   35   0.604   1.010   3.848
    2I3C     O1   36   0.317   1.516   3.609
    2I3C     O2   37   0.766   1.045   3.699
    2I3C     O3   38   0.500   1.513   3.481
    2I3C     O4   39   0.499   0.183   3.465
    2I3C     H0   40   0.660   0.962   3.885
    2I3C     H1   41   0.484   1.593   3.475
    2I3C     H2   42   0.284   0.914   3.422
    2I3C     H3   43   0.207   1.033   3.375
    2I3C     H4   44   0.556   0.189   3.402
    2I3C     H5   45   0.535   0.209   3.538
    2I3C     N0   46   0.272   0.999   3.421
    3I3C     I0   47   0.203   1.308   5.255
    3I3C     I1   48   0.503   0.826   5.463
    3I3C     I2   49   0.638   1.377   5.670
    3I3C     C0   50   0.462   1.032   5.470
    3I3C     C1   51   0.424   1.308   5.464
    3I3C     C2   52   0.542   1.115   5.549
    3I3C     C3   53   0.356   1.083   5.394
    3I3C     C4   54   0.523   1.252   5.547
    3I3C     C5   55   0.342   1.224   5.388
    3I3C     C6   56   0.650   1.053   5.634
    3I3C     C7   57   0.408   1.457   5.454
    3I3C     O0   58   0.604   1.010   5.748
    3I3C     O1   59   0.317   1.516   5.508
    3I3C     O2   60   0.766   1.045   5.599
    3I3C     O3   61   0.500   1.513   5.380
    3I3C     O4   62   0.499   0.183   5.364
    3I3C     H0   63   0.660   0.962   5.784
    3I3C     H1   64   0.484   1.593   5.374
    3I3C     H2   65   0.284   0.914   5.321
    3I3C     H3   66   0.207   1.033   5.274
    3I3C     H4   67   0.556   0.189   5.301
    3I3C     H5   68   0.535   0.209   5.437
    3I3C     N0   69   0.272   0.999   5.320
    4I3C     I0   70   1.133   1.308   1.457
    4I3C     I1   71   1.433   0.826   1.664
    4I3C     I2   72   1.568   1.377   1.872
    4I3C     C0   73   1.392   1.032   1.672
    4I3C     C1   74   1.355   1.308   1.665
    4I3C     C2   75   1.473   1.115   1.750
    4I3C     C3   76   1.286   1.083   1.595
    4I3C     C4   77   1.453   1.252   1.748
    4I3C     C5   78   1.273   1.224   1.589
    4I3C     C6   79   1.581   1.053   1.836
    4I3C     C7   80   1.338   1.457   1.656
    4I3C     O0   81   1.534   1.010   1.949
    4I3C     O1   82   1.247   1.516   1.710
    4I3C     O2   83   1.696   1.045   1.800
    4I3C     O3   84   1.430   1.513   1.582
    4I3C     O4   85   1.429   0.183   1.566
    4I3C     H0   86   1.590   0.962   1.985
    4I3C     H1   87   1.415   1.593   1.575
    4I3C     H2   88   1.215   0.914   1.523
    4I3C     H3   89   1.138   1.033   1.475
    4I3C     H4   90   1.487   0.189   1.503
    4I3C     H5   91   1.466   0.209   1.638
    4I3C     N0   92   1.202   0.999   1.522
    5I3C     I0   93   1.133   1.308   3.356
    5I3C     I1   94   1.433   0.826   3.563
    5I3C     I2   95   1.568   1.377   3.771
    5I3C     C0   96   1.392   1.032   3.571
    5I3C     C1   97   1.355   1.308   3.564
    5I3C     C2   98   1.473   1.115   3.649
    5I3C     C3   99   1.286   1.083   3.495
    5I3C     C4  100   1.453   1.252   3.647
    5I3C     C5  101   1.273   1.224   3.489
    5I3C     C6  102   1.581   1.053   3.735
    5I3C     C7  103   1.338   1.457   3.555
    5I3C     O0  104   1.534   1.010   3.848
    5I3C     O1  105   1.247   1.516   3.609
    5I3C     O2  106   1.696   1.045   3.699
    5I3C     O3  107   1.430   1.513   3.481
    5I3C     O4  108   1.429   0.183   3.465
    5I3C     H0  109   1.590   0.962   3.885
    5I3C     H1  110   1.415   1.593   3.475
    5I3C     H2  111   1.215   0.914   3.422
    5I3C     H3  112   1.138   1.033   3.375
    5I3C     H4  113   1.487   0.189   3.402
    5I3C     H5  114   1.466   0.209   3.538
    5I3C     N0  115   1.202   0.999   3.421
    6I3C     I0  116   1.133   1.308   5.255
    6I3C     I1  117   1.433   0.826   5.463
    6I3C     I2  118   1.568   1.377   5.670
    6I3C     C0  119   1.392   1.032   5.470
    6I3C     C1  120   1.355   1.308   5.464
    6I3C     C2  121   1.473   1.115   5.549
    6I3C     C3  122   1.286   1.083   5.394
    6I3C     C4  123   1.453   1.252   5.547
    6I3C     C5  124   1.273   1.224   5.388
    6I3C     C6  125   1.581   1.053   5.634
    6I3C     C7  126   1.338   1.457   5.454
    6I3C     O0  127   1.534   1.010   5.748
    6I3C     O1  128   1.247   1.516   5.508
    6I3C     O2  129   1.696   1.045   5.599
    6I3C     O3  130   1.430   1.513   5.380
    6I3C     O4  131   1.429   0.183   5.364
    6I3C     H0  132   1.590   0.962   5.784
    6I3C     H1  133   1.415   1.593   5.374
    6I3C     H2  134   1.215   0.914   5.321
    6I3C     H3  135   1.138   1.033   5.274
    6I3C     H4  136   1.487   0.189   5.301
    6I3C     H5  137   1.466   0.209   5.437
    6I3C     N0  138   1.202   0.999   5.320
    7I3C     I0  139   2.064   1.308   1.457
    7I3C     I1  140   2.364   0.826   1.664
    7I3C     I2  141   2.499   1.377   1.872
    7I3C     C0  142   2.322   1.032   1.672
    7I3C     C1  143   2.285   1.308   1.665
    7I3C     C2  144   2.403   1.115   1.750
    7I3C     C3  145   2.216   1.083   1.595
    7I3C     C4  146   2.384   1.252   1.748
    7I3C     C5  147   2.203   1.224   1.589
    7I3C     C6  148   2.511   1.053   1.836
    7I3C     C7  149   2.269   1.457   1.656
    7I3C     O0  150   2.465   1.010   1.949
    7I3C     O1  151   2.177   1.516   1.710
    7I3C     O2  152   2.627   1.045   1.800
    7I3C     O3  153   2.361   1.513   1.582
    7I3C     O4  154   2.360   0.183   1.566
    7I3C     H0  155   2.521   0.962   1.985
    7I3C     H1  156   2.345   1.593   1.575
    7I3C     H2  157   2.145   0.914   1.523
    7I3C     H3  158   2.068   1.033   1.475
    7I3C     H4  159   2.417   0.189   1.503
    7I3C     H5  160   2.396   0.209   1.638
    7I3C     N0  161   2.132   0.999   1.522
    8I3C     I0  162   2.064   1.308   3.356
    8I3C     I1  163   2.364   0.826   3.563
    8I3C     I2  164   2.499   1.377   3.771
    8I3C     C0  165   2.322   1.032   3.571
    8I3C     C1  166   2.285   1.308   3.564
    8I3C     C2  167   2.403   1.115   3.649
    8I3C     C3  168   2.216   1.083   3.495
    8I3C     C4  169   2.384   1.252   3.647
    8I3C     C5  170   2.203   1.224   3.489
    8I3C     C6  171   2.511   1.053   3.735
    8I3C     C7  172   2.269   1.457   3.555
    8I3C     O0  173   2.465   1.010   3.848
    8I3C     O1  174   2.177   1.516   3.609
    8I3C     O2  175   2.627   1.045   3.699
    8I3C     O3  176   2.361   1.513   3.481
    8I3C     O4  177   2.360   0.183   3.465
    8I3C     H0  178   2.521   0.962   3.885
    8I3C     H1  179   2.345   1.593   3.475
    8I3C     H2  180   2.145   0.914   3.422
    8I3C     H3  181   2.068   1.033   3.375
    8I3C     H4  182   2.417   0.189   3.402
    8I3C     H5  183   2.396   0.209   3.538
    8I3C     N0  184   2.132   0.999   3.421
    9I3C     I0  185   2.064   1.308   5.255
    9I3C     I1  186   2.364   0.826   5.463
    9I3C     I2  187   2.499   1.377   5.670
    9I3C     C0  188   2.322   1.032   5.470
    9I3C     C1  189   2.285   1.308   5.464
    9I3C     C2  190   2.403   1.115   5.549
    9I3C     C3  191   2.216   1.083   5.394
    9I3C     C4  192   2.384   1.252   5.547
    9I3C     C5  193   2.203   1.224   5.388
    9I3C     C6  194   2.511   1.053   5.634
    9I3C     C7  195   2.269   1.457   5.454
    9I3C     O0  196   2.465   1.010   5.748
    9I3C     O1  197   2.177   1.516   5.508
    9I3C     O2  198   2.627   1.045   5.599
    9I3C     O3  199   2.361   1.513   5.380
    9I3C     O4  200   2.360   0.183   5.364
    9I3C     H0  201   2.521   0.962   5.784
    9I3C     H1  202   2.345   1.593   5.374
    9I3C     H2  203   2.145   0.914   5.321
    9I3C     H3  204   2.068   1.033   5.274
    9I3C     H4  205   2.417   0.189   5.301
    9I3C     H5  206   2.396   0.209   5.437
    9I3C     N0  207   2.132   0.999   5.320
   10I3C     I0  208   0.203   2.894   1.457
   10I3C     I1  209   0.503   2.412   1.664
   10I3C     I2  210   0.638   2.963   1.872
   10I3C     C0  211   0.462   2.618   1.672
   10I3C     C1  212   0.424   2.894   1.665
   10I3C     C2  213   0.542   2.701   1.750
   10I3C     C3  214   0.356   2.670   1.595
   10I3C     C4  215   0.523   2.839   1.748
   10I3C     C5  216   0.342   2.810   1.589
   10I3C     C6  217   0.650   2.639   1.836
   10I3C     C7  218   0.408   3.043   1.656
   10I3C     O0  219   0.604   2.596   1.949
   10I3C     O1  220   0.317   3.102   1.710
   10I3C     O2  221   0.766   2.632   1.800
   10I3C     O3  222   0.500   3.099   1.582
   10I3C     O4  223   0.499   1.769   1.566
   10I3C     H0  224   0.660   2.548   1.985
   10I3C     H1  225   0.484   3.179   1.575
   10I3C     H2  226   0.284   2.500   1.523
   10I3C     H3  227   0.207   2.619   1.475
   10I3C     H4  228   0.556   1.776   1.503
   10I3C     H5  229   0.535   1.795   1.638
   10I3C     N0  230   0.272   2.586   1.522
   11I3C     I0  231   0.203   2.894   3.356
   11I3C     I1  232   0.503   2.412   3.563
   11I3C     I2  233   0.638   2.963   3.771
   11I3C     C0  234   0.462   2.618   3.571
   11I3C     C1  235   0.424   2.894   3.564
   11I3C     C2  236   0.542   2.701   3.649
   11I3C     C3  237   0.356   2.670   3.495
   11I3C     C4  238   0.523   2.839   3.647
   11I3C     C5  239   0.342   2.810   3.489
   11I3C     C6  240   0.650   2.639   3.735
   11I3C     C7  241   0.408   3.043   3.555
   11I3C     O0  242   0.604   2.596   3.848
   11I3C     O1  243   0.317   3.102   3.609
   11I3C     O2  244   0.766   2.632   3.699
   11I3C     O3  245   0.500   3.099   3.481
   11I3C     O4  246   0.499   1.769   3.465
   11I3C     H0  247   0.660   2.548   3.885
   11I3C     H1  248   0.484   3.179   3.475
   11I3C     H2  249   0.284   2.500   3.422
   11I3C     H3  250   0.207   2.619   3.375
   11I3C     H4  251   0.556   1.776   3.402
   11I3C     H5  252   0.535   1.795   3.538
   11I3C     N0  253   0.272   2.586   3.421
   12I3C     I0  254   0.203   2.894   5.255
   12I3C     I1  255   0.503   2.412   5.463
   12I3C     I2  256   0.638   2.963   5.670
   12I3C     C0  257   0.462   2.618   5.470
   12I3C     C1  258   0.424   2.894   5.464
   12I3C     C2  259   0.542   2.701   5.549
   12I3C     C3  260   0.356   2.670   5.394
   12I3C     C4  261   0.523   2.839   5.547
   12I3C     C5  262   0.342   2.810   5.388
   12I3C     C6  263   0.650   2.639   5.634
   12I3C     C7  264   0.408   3.043   5.454
   12I3C     O0  265   0.604   2.596   5.748
   12I3C     O1  266   0.317   3.102   5.508
   12I3C     O2  267   0.766   2.632   5.599
   12I3C     O3  268   0.500   3.099   5.380
   12I3C     O4  269   0.499   1.769   5.364
   12I3C     H0  270   0.660   2.548   5.784
   12I3C     H1  271   0.484   3.179   5.374
   12I3C     H2  272   0.284   2.500   5.321
   12I3C     H3  273   0.207   2.619   5.274
   12I3C     H4  274   0.556   1.776   5.301
   12I3C     H5  275   0.535   1.795   5.437
   12I3C     N0  276   0.272   2.586   5.320
   13I3C     I0  277   1.133   2.894   1.457
   13I3C     I1  278   1.433   2.412   1.664
   13I3C     I2  279   1.568   2.963   1.872
   13I3C     C0  280   1.392   2.618   1.672
   13I3C     C1  281   1.355   2.894   1.665
   13I3C     C2  282   1.473   2.701   1.750
   13I3C     C3  283   1.286   2.670   1.595
   13I3C     C4  284   1.453   2.839   1.748
   13I3C     C5  285   1.273   2.810   1.589
   13I3C     C6  286   1.581   2.639   1.836
   13I3C     C7  287   1.338   3.043   1.656
   13I3C     O0  288   1.534   2.596   1.949
   13I3C     O1  289   1.247   3.102   1.710
   13I3C     O2  290   1.696   2.632   1.800
   13I3C     O3  291   1.430   3.099   1.582
   13I3C     O4  292   1.429   1.769   1.566
   13I3C     H0  293   1.590   2.548   1.985
   13I3C     H1  294   1.415   3.179   1.575
   13I3C     H2  295   1.215   2.500   1.523
   13I3C     H3  296   1.138   2.619   1.475
   13I3C     H4  297   1.487   1.776   1.503
   13I3C     H5  298   1.466   1.795   1.638
   13I3C     N0  299   1.202   2.586   1.522
   14I3C     I0  300   1.133   2.894   3.356
   14I3C     I1  301   1.433   2.412   3.563
   14I3C     I2  302   1.568   2.963   3.771
   14I3C     C0  303   1.392   2.618   3.571
   14I3C     C1  304   1.355   2.894   3.564
   14I3C     C2  305   1.473   2.701   3.649
   14I3C     C3  306   1.286   2.670   3.495
   14I3C     C4  307   1.453   2.839   3.647
   14I3C     C5  308   1.273   2.810   3.489
   14I3C     C6  309   1.581   2.639   3.735
   14I3C     C7  310   1.338   3.043   3.555
   14I3C     O0  311   1.534   2.596   3.848
   14I3C     O1  312   1.247   3.102   3.609
   14I3C     O2  313   1.696   2.632   3.699
   14I3C     O3  314   1.430   3.099   3.481
   14I3C     O4  315   1.429   1.769   3.465
   14I3C     H0  316   1.590   2.548   3.885
   14I3C     H1  317   1.415   3.179   3.475
   14I3C     H2  318   1.215   2.500   3.422
   14I3C     H3  319   1.138   2.619   3.375
   14I3C     H4  320   1.487   1.776   3.402
   14I3C     H5  321   1.466   1.795   3.538
   14I3C     N0  322   1.202   2.586   3.421
   15I3C     I0  323   1.133   2.894   5.255
   15I3C     I1  324   1.433   2.412   5.463
   15I3C     I2  325   1.568   2.963   5.670
   15I3C     C0  326   1.392   2.618   5.470
   15I3C     C1  327   1.355   2.894   5.464
   15I3C     C2  328   1.473   2.701   5.549
   15I3C     C3  329   1.286   2.670   5.394
   15I3C     C4  330   1.453   2.839   5.547
   15I3C     C5  331   1.273   2.810   5.388
   15I3C     C6  332   1.581   2.639   5.634
   15I3C     C7  333   1.338   3.043   5.454
   15I3C     O0  334   1.534   2.596   5.748
   15I3C     O1  335   1.247   3.102   5.508
   15I3C     O2  336   1.696   2.632   5.599
   15I3C     O3  337   1.430   3.099   5.380
   15I3C     O4  338   1.429   1.769   5.364
   15I3C     H0  339   1.590   2.548   5.784
   15I3C     H1  340   1.415   3.179   5.374
   15I3C     H2  341   1.215   2.500   5.321
   15I3C     H3  342   1.138   2.619   5.274
   15I3C     H4  343   1.487   1.776   5.301
   15I3C     H5  344   1.466   1.795   5.437
   15I3C     N0  345   1.202   2.586   5.320
   16I3C     I0  346   2.064   2.894   1.457
   16I3C     I1  347   2.364   2.412   1.664
   16I3C     I2  348   2.499   2.963   1.872
   16I3C     C0  349   2.322   2.618   1.672
   16I3C     C1  350   2.285   2.894   1.665
   16I3C     C2  351   2.403   2.701   1.750
   16I3C     C3  352   2.216   2.670   1.595
   16I3C     C4  353   2.384   2.839   1.748
   16I3C     C5  354   2.203   2.810   1.589
   16I3C     C6  355   2.511   2.639   1.836
   16I3C     C7  356   2.269   3.043   1.656
   16I3C     O0  357   2.465   2.596   1.949
   16I3C     O1  358   2.177   3.102   1.710
   16I3C     O2  359   2.627   2.632   1.800
   16I3C     O3  360   2.361   3.099   1.582
   16I3C     O4  361   2.360   1.769   1.566
   16I3C     H0  362   2.521   2.548   1.985
   16I3C     H1  363   2.345   3.179   1.575
   16I3C     H2  364   2.145   2.500   1.523
   16I3C     H3  365   2.068   2.619   1.475
   16I3C     H4  366   2.417   1.776   1.503
   16I3C     H5  367   2.396   1.795   1.638
   16I3C     N0  368   2.132   2.586   1.522
   17I3C     I0  369   2.064   2.894   3.356
   17I3C     I1  370   2.364   2.412   3.563
   17I3C     I2  371   2.499   2.963   3.771
   17I3C     C0  372   2.322   2.618   3.571
   17I3C     C1  373   2.285   2.894   3.564
   17I3C     C2  374   2.403   2.701   3.649
   17I3C     C3  375   2.216   2.670   3.495
   17I3C     C4  376   2.384   2.839   3.647
   17I3C     C5  377   2.203   2.810   3.489
   17I3C     C6  378   2.511   2.639   3.735
   17I3C     C7  379   2.269   3.043   3.555
   17I3C     O0  380   2.465   2.596   3.848
   17I3C     O1  381   2.177   3.102   3.609
   17I3C     O2  382   2.627   2.632   3.699
   17I3C     O3  383   2.361   3.099   3.481
   17I3C     O4  384   2.360   1.769   3.465
   17I3C     H0  385   2.521   2.548   3.885
   17I3C     H1  386   2.345   3.179   3.475
   17I3C     H2  387   2.145   2.500   3.422
   17I3C     H3  388   2.068   2.619   3.375
   17I3C     H4  389   2.417   1.776   3.402
   17I3C     H5  390   2.396   1.795   3.538
   17I3C     N0  391   2.132   2.586   3.421
   18I3C     I0  392   2.064   2.894   5.255
   18I3C     I1  393   2.364   2.412   5.463
   18I3C     I2  394   2.499   2.963   5.670
   18I3C     C0  395   2.322   2.618   5.470
   18I3C     C1  396   2.285   2.894   5.464
   18I3C     C2  397   2.403   2.701   5.549
   18I3C     C3  398   2.216   2.670   5.394
   18I3C     C4  399   2.384   2.839   5.547
   18I3C     C5  400   2.203   2.810   5.388
   18I3C     C6  401   2.511   2.639   5.634
   18I3C     C7  402   2.269   3.043   5.454
   18I3C     O0  403   2.465   2.596   5.748
   18I3C     O1  404   2.177   3.102   5.508
   18I3C     O2  405   2.627   2.632   5.599
   18I3C     O3  406   2.361   3.099   5.380
   18I3C     O4  407   2.360   1.769   5.364
   18I3C     H0  408   2.521   2.548   5.784
   18I3C     H1  409   2.345   3.179   5.374
   18I3C     H2  410   2.145   2.500   5.321
   18I3C     H3  411   2.068   2.619   5.274
   18I3C     H4  412   2.417   1.776   5.301
   18I3C     H5  413   2.396   1.795   5.437
   18I3C     N0  414   2.132   2.586   5.320
   19I3C     I0  415   0.203   4.481   1.457
   19I3C     I1  416   0.503   3.999   1.664
   19I3C     I2  417   0.638   4.549   1.872
   19I3C     C0  418   0.462   4.204   1.672
   19I3C     C1  419   0.424   4.480   1.665
   19I3C     C2  420   0.542   4.287   1.750
   19I3C     C3  421   0.356   4.256   1.595
   19I3C     C4  422   0.523   4.425   1.748
   19I3C     C5  423   0.342   4.396   1.589
   19I3C     C6  424   0.650   4.225   1.836
   19I3C     C7  425   0.408   4.629   1.656
   19I3C     O0  426   0.604   4.182   1.949
   19I3C     O1  427   0.317   4.688   1.710
   19I3C     O2  428   0.766   4.218   1.800
   19I3C     O3  429   0.500   4.685   1.582
   19I3C     O4  430   0.499   3.355   1.566
   19I3C     H0  431   0.660   4.134   1.985
   19I3C     H1  432   0.484   4.766   1.575
   19I3C     H2  433   0.284   4.087   1.523
   19I3C     H3  434   0.207   4.205   1.475
   19I3C     H4  435   0.556   3.362   1.503
   19I3C     H5  436   0.535   3.381   1.638
   19I3C     N0  437   0.272   4.172   1.522
   20I3C     I0  438   0.203   4.481   3.356
   20I3C     I1  439   0.503   3.999   3.563
   20I3C     I2  440   0.638   4.549   3.771
   20I3C     C0  441   0.462   4.204   3.571
   20I3C     C1  442   0.424   4.480   3.564
   20I3C     C2  443   0.542   4.287   3.649
   20I3C     C3  444   0.356   4.256   3.495
   20I3C     C4  445   0.523   4.425   3.647
   20I3C     C5  446   0.342   4.396   3.489
   20I3C     C6  447   0.650   4.225   3.735
   20I3C     C7  448   0.408   4.629   3.555
   20I3C     O0  449   0.604   4.182   3.848
   20I3C     O1  450   0.317   4.688   3.609
   20I3C     O2  451   0.766   4.218   3.699
   20I3C     O3  452   0.500   4.685   3.481
   20I3C     O4  453   0.499   3.355   3.465
   20I3C     H0  454   0.660   4.134   3.885
   20I3C     H1  455   0.484   4.766   3.475
   20I3C     H2  456   0.284   4.087   3.422
   20I3C     H3  457   0.207   4.205   3.375
   20I3C     H4  458   0.556   3.362   3.402
   20I3C     H5  459   0.535   3.381   3.538
   20I3C     N0  460   0.272   4.172   3.421
   21I3C     I0  461   0.203   4.481   5.255
   21I3C     I1  462   0.503   3.999   5.463
   21I3C     I2  463   0.638   4.549   5.670
   21I3C     C0  464   0.462   4.204   5.470
   21I3C     C1  465   0.424   4.480   5.464
   21I3C     C2  466   0.542   4.287   5.549
   21I3C     C3  467   0.356   4.256   5.394
   21I3C     C4  468   0.523   4.425   5.547
   21I3C     C5  469   0.342   4.396   5.388
   21I3C     C6  470   0.650   4.225   5.634
   21I3C     C7  471   0.408   4.629   5.454
   21I3C     O0  472   0.604   4.182   5.748
   21I3C     O1  473   0.317   4.688   5.508
   21I3C     O2  474   0.766   4.218   5.599
   21I3C     O3  475   0.500   4.685   5.380
   21I3C     O4  476   0.499   3.355   5.364
   21I3C     H0  477   0.660   4.134   5.784
   21I3C     H1  478   0.484   4.766   5.374
   21I3C     H2  479   0.284   4.087   5.321
   21I3C     H3  480   0.207   4.205   5.274
   21I3C     H4  481   0.556   3.362   5.301
   21I3C     H5  482   0.535   3.381   5.437
   21I3C     N0  483   0.272   4.172   5.320
   22I3C     I0  484   1.133   4.481   1.457
   22I3C     I1  485   1.433   3.999   1.664
   22I3C     I2  486   1.568   4.549   1.872
   22I3C     C0  487   1.392   4.204   1.672
   22I3C     C1  488   1.355   4.480   1.665
   22I3C     C2  489   1.473   4.287   1.750
   22I3C     C3  490   1.286   4.256   1.595
   22I3C     C4  491   1.453   4.425   1.748
   22I3C     C5  492   1.273   4.396   1.589
   22I3C     C6  493   1.581   4.225   1.836
   22I3C     C7  494   1.338   4.629   1.656
   22I3C     O0  495   1.534   4.182   1.949
   22I3C     O1  496   1.247   4.688   1.710
   22I3C     O2  497   1.696   4.218   1.800
   22I3C     O3  498   1.430   4.685   1.582
   22I3C     O4  499   1.429   3.355   1.566
   22I3C     H0  500   1.590   4.134   1.985
   22I3C     H1  501   1.415   4.766   1.575
   22I3C     H2  502   1.215   4.087   1.523
   22I3C     H3  503   1.138   4.205   1.475
   22I3C     H4  504   1.487   3.362   1.503
   22I3C     H5  505   1.466   3.381   1.638
   22I3C     N0  506   1.202   4.172   1.522
   23I3C     I0  507   1.133   4.481   3.356
   23I3C     I1  508   1.433   3.999   3.563
   23I3C     I2  509   1.568   4.549   3.771
   23I3C     C0  510   1.392   4.204   3.571
   23I3C     C1  511   1.355   4.480   3.564
   23I3C     C2  512   1.473   4.287   3.649
   23I3C     C3  513   1.286   4.256   3.495
   23I3C     C4  514   1.453   4.425   3.647
   23I3C     C5  515   1.273   4.396   3.489
   23I3C     C6  516   1.581   4.225   3.735
   23I3C     C7  517   1.338   4.629   3.555
   23I3C     O0  518   1.534   4.182   3.848
   23I3C     O1  519   1.247   4.688   3.609
   23I3C     O2  520   1.696   4.218   3.699
   23I3C     O3  521   1.430   4.685   3.481
   23I3C     O4  522   1.429   3.355   3.465
   23I3C     H0  523   1.590   4.134   3.885
   23I3C     H1  524   1.415   4.766   3.475
   23I3C     H2  525   1.215   4.087   3.422
   23I3C     H3  526   1.138   4.205   3.375
   23I3C     H4  527   1.487   3.362   3.402
   23I3C     H5  528   1.466   3.381   3.538
   23I3C     N0  529   1.202   4.172   3.421
   24I3C     I0  530   1.133   4.481   5.255
   24I3C     I1  531   1.433   3.999   5.463
   24I3C     I2  532   1.568   4.549   5.670
   24I3C     C0  533   1.392   4.204   5.470
   24I3C     C1  534   1.355   4.480   5.464
   24I3C     C2  535   1.473   4.287   5.549
   24I3C     C3  536   1.286   4.256   5.394
   24I3C     C4  537   1.453   4.425   5.547
   24I3C     C5  538   1.273   4.396   5.388
   24I3C     C6  539   1.581   4.225   5.634
   24I3C     C7  540   1.338   4.629   5.454
   24I3C     O0  541   1.534   4.182   5.748
   24I3C     O1  542   1.247   4.688   5.508
   24I3C     O2  543   1.696   4.218   5.599
   24I3C     O3  544   1.430   4.685   5.380
   24I3C     O4  545   1.429   3.355   5.364
   24I3C     H0  546   1.590   4.134   5.784
   24I3C     H1  547   1.415   4.766   5.374
   24I3C     H2  548   1.215   4.087   5.321
   24I3C     H3  549   1.138   4.205   5.274
   24I3C     H4  550   1.487   3.362   5.301
   24I3C     H5  551   1.466   3.381   5.437
   24I3C     N0  552   1.202   4.172   5.320
   25I3C     I0  553   2.064   4.481   1.457
   25I3C     I1  554   2.364   3.999   1.664
   25I3C     I2  555   2.499   4.549   1.872
   25I3C     C0  556   2.322   4.204   1.672
   25I3C     C1  557   2.285   4.480   1.665
   25I3C     C2  558   2.403   4.287   1.750
   25I3C     C3  559   2.216   4.256   1.595
   25I3C     C4  560   2.384   4.425   1.748
   25I3C     C5  561   2.203   4.396   1.589
   25I3C     C6  562   2.511   4.225   1.836
   25I3C     C7  563   2.269   4.629   1.656
   25I3C     O0  564   2.465   4.182   1.949
   25I3C     O1  565   2.177   4.688   1.710
   25I3C     O2  566   2.627   4.218   1.800
   25I3C     O3  567   2.361   4.685   1.582
   25I3C     O4  568   2.360   3.355   1.566
   25I3C     H0  569   2.521   4.134   1.985
   25I3C     H1  570   2.345   4.766   1.575
   25I3C     H2  571   2.145   4.087   1.523
   25I3C     H3  572   2.068   4.205   1.475
   25I3C     H4  573   2.417   3.362   1.503
   25I3C     H5  574   2.396   3.381   1.638
   25I3C     N0  575   2.132   4.172   1.522
   26I3C     I0  576   2.064   4.481   3.356
   26I3C     I1  577   2.364   3.999   3.563
   26I3C     I2  578   2.499   4.549   3.771
   26I3C     C0  579   2.322   4.204   3.571
   26I3C     C1  580   2.285   4.480   3.564
   26I3C     C2  581   2.403   4.287   3.649
   26I3C     C3  582   2.216   4.256   3.495
   26I3C     C4  583   2.384   4.425   3.647
   26I3C     C5  584   2.203   4.396   3.489
   26I3C     C6  585   2.511   4.225   3.735
   26I3C     C7  586   2.269   4.629   3.555
   26I3C     O0  587   2.465   4.182   3.848
   26I3C     O1  588   2.177   4.688   3.609
   26I3C     O2  589   2.627   4.218   3.699
   26I3C     O3  590   2.361   4.685   3.481
   26I3C     O4  591   2.360   3.355   3.465
   26I3C     H0  592   2.521   4.134   3.885
   26I3C     H1  593   2.345   4.766   3.475
   26I3C     H2  594   2.145   4.087   3.422
   26I3C     H3  595   2.068   4.205   3.375
   26I3C     H4  596   2.417   3.362   3.402
   26I3C     H5  597   2.396   3.381   3.538
   26I3C     N0  598   2.132   4.172   3.421
   27I3C     I0  599   2.064   4.481   5.255
   27I3C     I1  600   2.364   3.999   5.463
   27I3C     I2  601   2.499   4.549   5.670
   27I3C     C0  602   2.322   4.204   5.470
   27I3C     C1  603   2.285   4.480   5.464
   27I3C     C2  604   2.403   4.287   5.549
   27I3C     C3  605   2.216   4.256   5.394
   27I3C     C4  606   2.384   4.425   5.547
   27I3C     C5  607   2.203   4.396   5.388
   27I3C     C6  608   2.511   4.225   5.634
   27I3C     C7  609   2.269   4.629   5.454
   27I3C     O0  610   2.465   4.182   5.748
   27I3C     O1  611   2.177   4.688   5.508
   27I3C     O2  612   2.627   4.218   5.599
   27I3C     O3  613   2.361   4.685   5.380
   27I3C     O4  614   2.360   3.355   5.364
   27I3C     H0  615   2.521   4.134   5.784
   27I3C     H1  616   2.345   4.766   5.374
   27I3C     H2  617   2.145   4.087   5.321
   27I3C     H3  618   2.068   4.205   5.274
   27I3C     H4  619   2.417   3.362   5.301
   27I3C     H5  620   2.396   3.381   5.437
   27I3C     N0  621   2.132   4.172   5.320
   28I3C     I0  622   0.258   2.095   1.457
   28I3C     I1  623  -0.042   1.613   1.664
   28I3C     I2  624  -0.177   2.164   1.872
   28I3C     C0  625  -0.001   1.819   1.672
   28I3C     C1  626   0.036   2.094   1.665
   28I3C     C2  627  -0.082   1.901   1.750
   28I3C     C3  628   0.105   1.870   1.595
   28I3C     C4  629  -0.062   2.039   1.748
   28I3C     C5  630   0.119   2.010   1.589
   28I3C     C6  631  -0.190   1.839   1.836
   28I3C     C7  632   0.053   2.243   1.656
   28I3C     O0  633  -0.143   1.796   1.949
   28I3C     O1  634   0.144   2.303   1.710
   28I3C     O2  635  -0.305   1.832   1.800
   28I3C     O3  636  -0.039   2.300   1.582
   28I3C     O4  637  -0.038   0.969   1.566
   28I3C     H0  638  -0.199   1.748   1.985
   28I3C     H1  639  -0.024   2.380   1.575
   28I3C     H2  640   0.176   1.701   1.523
   28I3C     H3  641   0.254   1.820   1.475
   28I3C     H4  642  -0.095   0.976   1.503
   28I3C     H5  643  -0.075   0.995   1.638
   28I3C     N0  644   0.189   1.786   1.522
   29I3C     I0  645   0.258   2.095   3.356
   29I3C     I1  646  -0.042   1.613   3.563
   29I3C     I2  647  -0.177   2.164   3.771
   29I3C     C0  648  -0.001   1.819   3.571
   29I3C     C1  649   0.036   2.094   3.564
   29I3C     C2  650  -0.082   1.901   3.649
   29I3C     C3  651   0.105   1.870   3.495
   29I3C     C4  652  -0.062   2.039   3.647
   29I3C     C5  653   0.119   2.010   3.489
   29I3C     C6  654  -0.190   1.839   3.735
   29I3C     C7  655   0.053   2.243   3.555
   29I3C     O0  656  -0.143   1.796   3.848
   29I3C     O1  657   0.144   2.303   3.609
   29I3C     O2  658  -0.305   1.832   3.699
   29I3C     O3  659  -0.039   2.300   3.481
   29I3C     O4  660  -0.038   0.969   3.465
   29I3C     H0  661  -0.199   1.748   3.885
   29I3C     H1  662  -0.024   2.380   3.475
   29I3C     H2  663   0.176   1.701   3.422
   29I3C     H3  664   0.254   1.820   3.375
   29I3C     H4  665  -0.095   0.976   3.402
   29I3C     H5  666  -0.075   0.995   3.538
   29I3C     N0  667   0.189   1.786   3.421
   30I3C     I0  668   0.258   2.095   5.255
   30I3C     I1  669  -0.042   1.613   5.463
   30I3C     I2  670  -0.177   2.164   5.670
   30I3C     C0  671  -0.001   1.819   5.470
   30I3C     C1  672   0.036   2.094   5.464
   30I3C     C2  673  -0.082   1.901   5.549
   30I3C     C3  674   0.105   1.870   5.394
   30I3C     C4  675  -0.062   2.039   5.547
   30I3C     C5  676   0.119   2.010   5.388
   30I3C     C6  677  -0.190   1.839   5.634
   30I3C     C7  678   0.053   2.243   5.454
   30I3C     O0  679  -0.143   1.796   5.748
   30I3C     O1  680   0.144   2.303   5.508
   30I3C     O2  681  -0.305   1.832   5.599
   30I3C     O3  682  -0.039   2.300   5.380
   30I3C     O4  683  -0.038   0.969   5.364
   30I3C     H0  684  -0.199   1.748   5.784
   30I3C     H1  685  -0.024   2.380   5.374
   30I3C     H2  686   0.176   1.701   5.321
   30I3C     H3  687   0.254   1.820   5.274
   30I3C     H4  688  -0.095   0.976   5.301
   30I3C     H5  689  -0.075   0.995   5.437
   30I3C     N0  690   0.189   1.786   5.320
   31I3C     I0  691   1.188   2.095   1.457
   31I3C     I1  692   0.888   1.613   1.664
   31I3C     I2  693   0.753   2.164   1.872
   31I3C     C0  694   0.929   1.819   1.672
   31I3C     C1  695   0.967   2.094   1.665
   31I3C     C2  696   0.849   1.901   1.750
   31I3C     C3  697   1.036   1.870   1.595
   31I3C     C4  698   0.868   2.039   1.748
   31I3C     C5  699   1.049   2.010   1.589
   31I3C     C6  700   0.741   1.839   1.836
   31I3C     C7  701   0.983   2.243   1.656
   31I3C     O0  702   0.787   1.796   1.949
   31I3C     O1  703   1.075   2.303   1.710
   31I3C     O2  704   0.625   1.832   1.800
   31I3C     O3  705   0.891   2.300   1.582
   31I3C     O4  706   0.892   0.969   1.566
   31I3C     H0  707   0.731   1.748   1.985
   31I3C     H1  708   0.907   2.380   1.575
   31I3C     H2  709   1.107   1.701   1.523
   31I3C     H3  710   1.184   1.820   1.475
   31I3C     H4  711   0.835   0.976   1.503
   31I3C     H5  712   0.856   0.995   1.638
   31I3C     N0  713   1.120   1.786   1.522
   32I3C     I0  714   1.188   2.095   3.356
   32I3C     I1  715   0.888   1.613   3.563
   32I3C     I2  716   0.753   2.164   3.771
   32I3C     C0  717   0.929   1.819   3.571
   32I3C     C1  718   0.967   2.094   3.564
   32I3C     C2  719   0.849   1.901   3.649
   32I3C     C3  720   1.036   1.870   3.495
   32I3C     C4  721   0.868   2.039   3.647
   32I3C     C5  722   1.049   2.010   3.489
   32I3C     C6  723   0.741   1.839   3.735
   32I3C     C7  724   0.983   2.243   3.555
   32I3C     O0  725   0.787   1.796   3.848
   32I3C     O1  726   1.075   2.303   3.609
   32I3C     O2  727   0.625   1.832   3.699
   32I3C     O3  728   0.891   2.300   3.481
   32I3C     O4  729   0.892   0.969   3.465
   32I3C     H0  730   0.731   1.748   3.885
   32I3C     H1  731   0.907   2.380   3.475
   32I3C     H2  732   1.107   1.701   3.422
   32I3C     H3  733   1.184   1.820   3.375
   32I3C     H4  734   0.835   0.976   3.402
   32I3C     H5  735   0.856   0.995   3.538
   32I3C     N0  736   1.120   1.786   3.421
   33I3C     I0  737   1.188   2.095   5.255
   33I3C     I1  738   0.888   1.613   5.463
   33I3C     I2  739   0.753   2.164   5.670
   33I3C     C0  740   0.929   1.819   5.470
   33I3C     C1  741   0.967   2.094   5.464
   33I3C     C2  742   0.849   1.901   5.549
   33I3C     C3  743   1.036   1.870   5.394
   33I3C     C4  744   0.868   2.039   5.547
   33I3C     C5  745   1.049   2.010   5.388
   33I3C     C6  746   0.741   1.839   5.634
   33I3C     C7  747   0.983   2.243   5.454
   33I3C     O0  748   0.787   1.796   5.748
   33I3C     O1  749   1.075   2.303   5.508
   33I3C     O2  750   0.625   1.832   5.599
   33I3C     O3  751   0.891   2.300   5.380
   33I3C     O4  752   0.892   0.969   5.364
   33I3C     H0  753   0.731   1.748   5.784
   33I3C     H1  754   0.907   2.380   5.374
   33I3C     H2  755   1.107   1.701   5.321
   33I3C     H3  756   1.184   1.820   5.274
   33I3C     H4  757   0.835   0.976   5.301
   33I3C     H5  758   0.856   0.995   5.437
   33I3C     N0  759   1.120   1.786   5.320
   34I3C     I0  760   2.119   2.095   1.457
   34I3C     I1  761   1.819   1.613   1.664
   34I3C     I2  762   1.684   2.164   1.872
   34I3C     C0  763   1.860   1.819   1.672
   34I3C     C1  764   1.897   2.094   1.665
   34I3C     C2  765   1.779   1.901   1.750
   34I3C     C3  766   1.966   1.870   1.595
   34I3C     C4  767   1.799   2.039   1.748
   34I3C     C5  768   1.980   2.010   1.589
   34I3C     C6  769   1.671   1.839   1.836
   34I3C     C7  770   1.914   2.243   1.656
   34I3C     O0  771   1.718   1.796   1.949
   34I3C     O1  772   2.005   2.303   1.710
   34I3C     O2  773   1.556   1.832   1.800
   34I3C     O3  774   1.822   2.300   1.582
   34I3C     O4  775   1.823   0.969   1.566
   34I3C     H0  776   1.662   1.748   1.985
   34I3C     H1  777   1.837   2.380   1.575
   34I3C     H2  778   2.037   1.701   1.523
   34I3C     H3  779   2.114   1.820   1.475
   34I3C     H4  780   1.765   0.976   1.503
   34I3C     H5  781   1.786   0.995   1.638
   34I3C     N0  782   2.050   1.786   1.522
   35I3C     I0  783   2.119   2.095   3.356
   35I3C     I1  784   1.819   1.613   3.563
   35I3C     I2  785   1.684   2.164   3.771
   35I3C     C0  786   1.860   1.819   3.571
   35I3C     C1  787   1.897   2.094   3.564
   35I3C     C2  788   1.779   1.901   3.649
   35I3C     C3  789   1.966   1.870   3.495
   35I3C     C4  790   1.799   2.039   3.647
   35I3C     C5  791   1.980   2.010   3.489
   35I3C     C6  792   1.671   1.839   3.735
   35I3C     C7  793   1.914   2.243   3.555
   35I3C     O0  794   1.718   1.796   3.848
   35I3C     O1  795   2.005   2.303   3.609
   35I3C     O2  796   1.556   1.832   3.699
   35I3C     O3  797   1.822   2.300   3.481
   35I3C     O4  798   1.823   0.969   3.465
   35I3C     H0  799   1.662   1.748   3.885
   35I3C     H1  800   1.837   2.380   3.475
   35I3C     H2  801   2.037   1.701   3.422
   35I3C     H3  802   2.114   1.820   3.375
   35I3C     H4  803   1.765   0.976   3.402
   35I3C     H5  804   1.786   0.995   3.538
   35I3C     N0  805   2.050   1.786   3.421
   36I3C     I0  806   2.119   2.095   5.255
   36I3C     I1  807   1.819   1.613   5.463
   36I3C     I2  808   1.684   2.164   5.670
   36I3C     C0  809   1.860   1.819   5.470
   36I3C     C1  810   1.897   2.094   5.464
   36I3C     C2  811   1.779   1.901   5.549
   36I3C     C3  812   1.966   1.870   5.394
   36I3C     C4  813   1.799   2.039   5.547
   36I3C     C5  814   1.980   2.010   5.388
   36I3C     C6  815   1.671   1.839   5.634
   36I3C     C7  816   1.914   2.243   5.454
   36I3C     O0  817   1.718   1.796   5.748
   36I3C     O1  818   2.005   2.303   5.508
   36I3C     O2  819   1.556   1.832   5.599
   36I3C     O3  820   1.822   2.300   5.380
   36I3C     O4  821   1.823   0.969   5.364
   36I3C     H0  822   1.662   1.748   5.784
   36I3C     H1  823   1.837   2.380   5.374
   36I3C     H2  824   2.037   1.701   5.321
   36I3C     H3  825   2.114   1.820   5.274
   36I3C     H4  826   1.765   0.976   5.301
   36I3C     H5  827   1.786   0.995   5.437
   36I3C     N0  828   2.050   1.786   5.320
   37I3C     I0  829   0.258   3.681   1.457
   37I3C     I1  830  -0.042   3.199   1.664
   37I3C     I2  831  -0.177   3.750   1.872
   37I3C     C0  832  -0.001   3.405   1.672
   37I3C     C1  833   0.036   3.681   1.665
   37I3C     C2  834  -0.082   3.488   1.750
   37I3C     C3  835   0.105   3.456   1.595
   37I3C     C4  836  -0.062   3.625   1.748
   37I3C     C5  837   0.119   3.596   1.589
   37I3C     C6  838  -0.190   3.425   1.836
   37I3C     C7  839   0.053   3.830   1.656
   37I3C     O0  840  -0.143   3.383   1.949
   37I3C     O1  841   0.144   3.889   1.710
   37I3C     O2  842  -0.305   3.418   1.800
   37I3C     O3  843  -0.039   3.886   1.582
   37I3C     O4  844  -0.038   2.556   1.566
   37I3C     H0  845  -0.199   3.335   1.985
   37I3C     H1  846  -0.024   3.966   1.575
   37I3C     H2  847   0.176   3.287   1.523
   37I3C     H3  848   0.254   3.406   1.475
   37I3C     H4  849  -0.095   2.562   1.503
   37I3C     H5  850  -0.075   2.582   1.638
   37I3C     N0  851   0.189   3.372   1.522
   38I3C     I0  852   0.258   3.681   3.356
   38I3C     I1  853  -0.042   3.199   3.563
   38I3C     I2  854  -0.177   3.750   3.771
   38I3C     C0  855  -0.001   3.405   3.571
   38I3C     C1  856   0.036   3.681   3.564
   38I3C     C2  857  -0.082   3.488   3.649
   38I3C     C3  858   0.105   3.456   3.495
   38I3C     C4  859  -0.062   3.625   3.647
   38I3C     C5  860   0.119   3.596   3.489
   38I3C     C6  861  -0.190   3.425   3.735
   38I3C     C7  862   0.053   3.830   3.555
   38I3C     O0  863  -0.143   3.383   3.848
   38I3C     O1  864   0.144   3.889   3.609
   38I3C     O2  865  -0.305   3.418   3.699
   38I3C     O3  866  -0.039   3.886   3.481
   38I3C     O4  867  -0.038   2.556   3.465
   38I3C     H0  868  -0.199   3.335   3.885
   38I3C     H1  869  -0.024   3.966   3.475
   38I3C     H2  870   0.176   3.287   3.422
   38I3C     H3  871   0.254   3.406   3.375
   38I3C     H4  872  -0.095   2.562   3.402
   38I3C     H5  873  -0.075   2.582   3.538
   38I3C     N0  874   0.189   3.372   3.421
   39I3C     I0  875   0.258   3.681   5.255
   39I3C     I1  876  -0.042   3.199   5.463
   39I3C     I2  877  -0.177   3.750   5.670
   39I3C     C0  878  -0.001   3.405   5.470
   39I3C     C1  879   0.036   3.681   5.464
   39I3C     C2  880  -0.082   3.488   5.549
   39I3C     C3  881   0.105   3.456   5.394
   39I3C     C4  882  -0.062   3.625   5.547
   39I3C     C5  883   0.119   3.596   5.388
   39I3C     C6  884  -0.190   3.425   5.634
   39I3C     C7  885   0.053   3.830   5.454
   39I3C     O0  886  -0.143   3.383   5.748
   39I3C     O1  887   0.144   3.889   5.508
   39I3C     O2  888  -0.305   3.418   5.599
   39I3C     O3  889  -0.039   3.886   5.380
   39I3C     O4  890  -0.038   2.556   5.364
   39I3C     H0  891  -0.199   3.335   5.784
   39I3C     H1  892  -0.024   3.966   5.374
   39I3C     H2  893   0.176   3.287   5.321
   39I3C     H3  894   0.254   3.406   5.274
   39I3C     H4  895  -0.095   2.562   5.301
   39I3C     H5  896  -0.075   2.582   5.437
   39I3C     N0  897   0.189   3.372   5.320
   40I3C     I0  898   1.188   3.681   1.457
   40I3C     I1  899   0.888   3.199   1.664
   40I3C     I2  900   0.753   3.750   1.872
   40I3C     C0  901   0.929   3.405   1.672
   40I3C     C1  902   0.967   3.681   1.665
   40I3C     C2  903   0.849   3.488   1.750
   40I3C     C3  904   1.036   3.456   1.595
   40I3C     C4  905   0.868   3.625   1.748
   40I3C     C5  906   1.049   3.596   1.589
   40I3C     C6  907   0.741   3.425   1.836
   40I3C     C7  908   0.983   3.830   1.656
   40I3C     O0  909   0.787   3.383   1.949
   40I3C     O1  910   1.075   3.889   1.710
   40I3C     O2  911   0.625   3.418   1.800
   40I3C     O3  912   0.891   3.886   1.582
   40I3C     O4  913   0.892   2.556   1.566
   40I3C     H0  914   0.731   3.335   1.985
   40I3C     H1  915   0.907   3.966   1.575
   40I3C     H2  916   1.107   3.287   1.523
   40I3C     H3  917   1.184   3.406   1.475
   40I3C     H4  918   0.835   2.562   1.503
   40I3C     H5  919   0.856   2.582   1.638
   40I3C     N0  920   1.120   3.372   1.522
   41I3C     I0  921   1.188   3.681   3.356
   41I3C     I1  922   0.888   3.199   3.563
   41I3C     I2  923   0.753   3.750   3.771
   41I3C     C0  924   0.929   3.405   3.571
   41I3C     C1  925   0.967   3.681   3.564
   41I3C     C2  926   0.849   3.488   3.649
   41I3C     C3  927   1.036   3.456   3.495
   41I3C     C4  928   0.868   3.625   3.647
   41I3C     C5  929   1.049   3.596   3.489
   41I3C     C6  930   0.741   3.425   3.735
   41I3C     C7  931   0.983   3.830   3.555
   41I3C     O0  932   0.787   3.383   3.848
   41I3C     O1  933   1.075   3.889   3.609
   41I3C     O2  934   0.625   3.418   3.699
   41I3C     O3  935   0.891   3.886   3.481
   41I3C     O4  936   0.892   2.556   3.465
   41I3C     H0  937   0.731   3.335   3.885
   41I3C     H1  938   0.907   3.966   3.475
   41I3C     H2  939   1.107   3.287   3.422
   41I3C     H3  940   1.184   3.406   3.375
   41I3C     H4  941   0.835   2.562   3.402
   41I3C     H5  942   0.856   2.582   3.538
   41I3C     N0  943   1.120   3.372   3.421
   42I3C     I0  944   1.188   3.681   5.255
   42I3C     I1  945   0.888   3.199   5.463
   42I3C     I2  946   0.753   3.750   5.670
   42I3C     C0  947   0.929   3.405   5.470
   42I3C     C1  948   0.967   3.681   5.464
   42I3C     C2  949   0.849   3.488   5.549
   42I3C     C3  950   1.036   3.456   5.394
   42I3C     C4  951   0.868   3.625   5.547
   42I3C     C5  952   1.049   3.596   5.388
   42I3C     C6  953   0.741   3.425   5.634
   42I3C     C7  954   0.983   3.830   5.454
   42I3C     O0  955   0.787   3.383   5.748
   42I3C     O1  956   1.075   3.889   5.508
   42I3C     O2  957   0.625   3.418   5.599
   42I3C     O3  958   0.891   3.886   5.380
   42I3C     O4  959   0.892   2.556   5.364
   42I3C     H0  960   0.731   3.335   5.784
   42I3C     H1  961   0.907   3.966   5.374
   42I3C     H2  962   1.107   3.287   5.321
   42I3C     H3  963   1.184   3.406   5.274
   42I3C     H4  964   0.835   2.562   5.301
   42I3C     H5  965   0.856   2.582   5.437
   42I3C     N0  966   1.120   3.372   5.320
   43I3C     I0  967   2.119   3.681   1.457
   43I3C     I1  968   1.819   3.199   1.664
   43I3C     I2  969   1.684   3.750   1.872
   43I3C     C0  970   1.860   3.405   1.672
   43I3C     C1  971   1.897   3.681   1.665
   43I3C     C2  972   1.779   3.488   1.750
   43I3C     C3  973   1.966   3.456   1.595
   43I3C     C4  974   1.799   3.625   1.748
   43I3C     C5  975   1.980   3.596   1.589
   43I3C     C6  976   1.671   3.425   1.836
   43I3C     C7  977   1.914   3.830   1.656
   43I3C     O0  978   1.718   3.383   1.949
   43I3C     O1  979   2.005   3.889   1.710
   43I3C     O2  980   1.556   3.418   1.800
   43I3C     O3  981   1.822   3.886   1.582
   43I3C     O4  982   1.823   2.556   1.566
   43I3C     H0  983   1.662   3.335   1.985
   43I3C     H1  984   1.837   3.966   1.575
   43I3C     H2  985   2.037   3.287   1.523
   43I3C     H3  986   2.114   3.406   1.475
   43I3C     H4  987   1.765   2.562   1.503
   43I3C     H5  988   1.786   2.582   1.638
   43I3C     N0  989   2.050   3.372   1.522
   44I3C     I0  990   2.119   3.681   3.356
   44I3C     I1  991   1.819   3.199   3.563
   44I3C     I2  992   1.684   3.750   3.771
   44I3C     C0  993   1.860   3.405   3.571
   44I3C     C1  994   1.897   3.681   3.564
   44I3C     C2  995   1.779   3.488   3.649
   44I3C     C3  996   1.966   3.456   3.495
   44I3C     C4  997   1.799   3.625   3.647
   44I3C     C5  998   1.980   3.596   3.489
   44I3C     C6  999   1.671   3.425   3.735
   44I3C     C7 1000   1.914   3.830   3.555
   44I3C     O0 1001   1.718   3.383   3.848
   44I3C     O1 1002   2.005   3.889   3.609
   44I3C     O2 1003   1.556   3.418   3.699
   44I3C     O3 1004   1.822   3.886   3.481
   44I3C     O4 1005   1.823   2.556   3.465
   44I3C     H0 1006   1.662   3.335   3.885
   44I3C     H1 1007   1.837   3.966   3.475
   44I3C     H2 1008   2.037   3.287   3.422
   44I3C     H3 1009   2.114   3.406   3.375
   44I3C     H4 1010   1.765   2.562   3.402
   44I3C     H5 1011   1.786   2.582   3.538
   44I3C     N0 1012   2.050   3.372   3.421
   45I3C     I0 1013   2.119   3.681   5.255
   45I3C     I1 1014   1.819   3.199   5.463
   45I3C     I2 1015   1.684   3.750   5.670
   45I3C     C0 1016   1.860   3.405   5.470
   45I3C     C1 1017   1.897   3.681   5.464
   45I3C     C2 1018   1.779   3.488   5.549
   45I3C     C3 1019   1.966   3.456   5.394
   45I3C     C4 1020   1.799   3.625   5.547
   45I3C     C5 1021   1.980   3.596   5.388
   45I3C     C6 1022   1.671   3.425   5.634
   45I3C     C7 1023   1.914   3.830   5.454
   45I3C     O0 1024   1.718   3.383   5.748
   45I3C     O1 1025   2.005   3.889   5.508
   45I3C     O2 1026   1.556   3.418   5.599
   45I3C     O3 1027   1.822   3.886   5.380
   45I3C     O4 1028   1.823   2.556   5.364
   45I3C     H0 1029   1.662   3.335   5.784
   45I3C     H1 1030   1.837   3.966   5.374
   45I3C     H2 1031   2.037   3.287   5.321
   45I3C     H3 1032   2.114   3.406   5.274
   45I3C     H4 1033   1.765   2.562   5.301
   45I3C     H5 1034   1.786   2.582   5.437
   45I3C     N0 1035   2.050   3.372   5.320
   46I3C     I0 1036   0.258   5.267   1.457
   46I3C     I1 1037  -0.042   4.785   1.664
   46I3C     I2 1038  -0.177   5.336   1.872
   46I3C     C0 1039  -0.001   4.991   1.672
   46I3C     C1 1040   0.036   5.267   1.665
   46I3C     C2 1041  -0.082   5.074   1.750
   46I3C     C3 1042   0.105   5.043   1.595
   46I3C     C4 1043  -0.062   5.212   1.748
   46I3C     C5 1044   0.119   5.183   1.589
   46I3C     C6 1045  -0.190   5.012   1.836
   46I3C     C7 1046   0.053   5.416   1.656
   46I3C     O0 1047  -0.143   4.969   1.949
   46I3C     O1 1048   0.144   5.475   1.710
   46I3C     O2 1049  -0.305   5.004   1.800
   46I3C     O3 1050  -0.039   5.472   1.582
   46I3C     O4 1051  -0.038   4.142   1.566
   46I3C     H0 1052  -0.199   4.921   1.985
   46I3C     H1 1053  -0.024   5.552   1.575
   46I3C     H2 1054   0.176   4.873   1.523
   46I3C     H3 1055   0.254   4.992   1.475
   46I3C     H4 1056  -0.095   4.149   1.503
   46I3C     H5 1057  -0.075   4.168   1.638
   46I3C     N0 1058   0.189   4.959   1.522
   47I3C     I0 1059   0.258   5.267   3.356
   47I3C     I1 1060  -0.042   4.785   3.563
   47I3C     I2 1061  -0.177   5.336   3.771
   47I3C     C0 1062  -0.001   4.991   3.571
   47I3C     C1 1063   0.036   5.267   3.564
   47I3C     C2 1064  -0.082   5.074   3.649
   47I3C     C3 1065   0.105   5.043   3.495
   47I3C     C4 1066  -0.062   5.212   3.647
   47I3C     C5 1067   0.119   5.183   3.489
   47I3C     C6 1068  -0.190   5.012   3.735
   47I3C     C7 1069   0.053   5.416   3.555
   47I3C     O0 1070  -0.143   4.969   3.848
   47I3C     O1 1071   0.144   5.475   3.609
   47I3C     O2 1072  -0.305   5.004   3.699
   47I3C     O3 1073  -0.039   5.472   3.481
   47I3C     O4 1074  -0.038   4.142   3.465
   47I3C     H0 1075  -0.199   4.921   3.885
   47I3C     H1 1076  -0.024   5.552   3.475
   47I3C     H2 1077   0.176   4.873   3.422
   47I3C     H3 1078   0.254   4.992   3.375
   47I3C     H4 1079  -0.095   4.149   3.402
   47I3C     H5 1080  -0.075   4.168   3.538
   47I3C     N0 1081   0.189   4.959   3.421
   48I3C     I0 1082   0.258   5.267   5.255
   48I3C     I1 1083  -0.042   4.785   5.463
   48I3C     I2 1084  -0.177   5.336   5.670
   48I3C     C0 1085  -0.001   4.991   5.470
   48I3C     C1 1086   0.036   5.267   5.464
   48I3C     C2 1087  -0.082   5.074   5.549
   48I3C     C3 1088   0.105   5.043   5.394
   48I3C     C4 1089  -0.062   5.212   5.547
   48I3C     C5 1090   0.119   5.183   5.388
   48I3C     C6 1091  -0.190   5.012   5.634
   48I3C     C7 1092   0.053   5.416   5.454
   48I3C     O0 1093  -0.143   4.969   5.748
   48I3C     O1 1094   0.144   5.475   5.508
   48I3C     O2 1095  -0.305   5.004   5.599
   48I3C     O3 1096  -0.039   5.472   5.380
   48I3C     O4 1097  -0.038   4.142   5.364
   48I3C     H0 1098  -0.199   4.921   5.784
   48I3C     H1 1099  -0.024   5.552   5.374
   48I3C     H2 1100   0.176   4.873   5.321
   48I3C     H3 1101   0.254   4.992   5.274
   48I3C     H4 1102  -0.095   4.149   5.301
   48I3C     H5 1103  -0.075   4.168   5.437
   48I3C     N0 1104   0.189   4.959   5.320
   49I3C     I0 1105   1.188   5.267   1.457
   49I3C     I1 1106   0.888   4.785   1.664
   49I3C     I2 1107   0.753   5.336   1.872
   49I3C     C0 1108   0.929   4.991   1.672
   49I3C     C1 1109   0.967   5.267   1.665
   49I3C     C2 1110   0.849   5.074   1.750
   49I3C     C3 1111   1.036   5.043   1.595
   49I3C     C4 1112   0.868   5.212   1.748
   49I3C     C5 1113   1.049   5.183   1.589
   49I3C     C6 1114   0.741   5.012   1.836
   49I3C     C7 1115   0.983   5.416   1.656
   49I3C     O0 1116   0.787   4.969   1.949
   49I3C     O1 1117   1.075   5.475   1.710
   49I3C     O2 1118   0.625   5.004   1.800
   49I3C     O3 1119   0.891   5.472   1.582
   49I3C     O4 1120   0.892   4.142   1.566
   49I3C     H0 1121   0.731   4.921   1.985
   49I3C     H1 1122   0.907   5.552   1.575
   49I3C     H2 1123   1.107   4.873   1.523
   49I3C     H3 1124   1.184   4.992   1.475
   49I3C     H4 1125   0.835   4.149   1.503
   49I3C     H5 1126   0.856   4.168   1.638
   49I3C     N0 1127   1.120   4.959   1.522
   50I3C     I0 1128   1.188   5.267   3.356
   50I3C     I1 1129   0.888   4.785   3.563
   50I3C     I2 1130   0.753   5.336   3.771
   50I3C     C0 1131   0.929   4.991   3.571
   50I3C     C1 1132   0.967   5.267   3.564
   50I3C     C2 1133   0.849   5.074   3.649
   50I3C     C3 1134   1.036   5.043   3.495
   50I3C     C4 1135   0.868   5.212   3.647
   50I3C     C5 1136   1.049   5.183   3.489
   50I3C     C6 1137   0.741   5.012   3.735
   50I3C     C7 1138   0.983   5.416   3.555
   50I3C     O0 1139   0.787   4.969   3.848
   50I3C     O1 1140   1.075   5.475   3.609
   50I3C     O2 1141   0.625   5.004   3.699
   50I3C     O3 1142   0.891   5.472   3.481
   50I3C     O4 1143   0.892   4.142   3.465
   50I3C     H0 1144   0.731   4.921   3.885
   50I3C     H1 1145   0.907   5.552   3.475
   50I3C     H2 1146   1.107   4.873   3.422
   50I3C     H3 1147   1.184   4.992   3.375
   50I3C     H4 1148   0.835   4.149   3.402
   50I3C     H5 1149   0.856   4.168   3.538
   50I3C     N0 1150   1.120   4.959   3.421
   51I3C     I0 1151   1.188   5.267   5.255
   51I3C     I1 1152   0.888   4.785   5.463
   51I3C     I2 1153   0.753   5.336   5.670
   51I3C     C0 1154   0.929   4.991   5.470
   51I3C     C1 1155   0.967   5.267   5.464
   51I3C     C2 1156   0.849   5.074   5.549
   51I3C     C3 1157   1.036   5.043   5.394
   51I3C     C4 1158   0.868   5.212   5.547
   51I3C     C5 1159   1.049   5.183   5.388
   51I3C     C6 1160   0.741   5.012   5.634
   51I3C     C7 1161   0.983   5.416   5.454
   51I3C     O0 1162   0.787   4.969   5.748
   51I3C     O1 1163   1.075   5.475   5.508
   51I3C     O2 1164   0.625   5.004   5.599
   51I3C     O3 1165   0.891   5.472   5.380
   51I3C     O4 1166   0.892   4.142   5.364
   51I3C     H0 1167   0.731   4.921   5.784
   51I3C     H1 1168   0.907   5.552   5.374
   51I3C     H2 1169   1.107   4.873   5.321
   51I3C     H3 1170   1.184   4.992   5.274
   51I3C     H4 1171   0.835   4.149   5.301
   51I3C     H5 1172   0.856   4.168   5.437
   51I3C     N0 1173   1.120   4.959   5.320
   52I3C     I0 1174   2.119   5.267   1.457
   52I3C     I1 1175   1.819   4.785   1.664
   52I3C     I2 1176   1.684   5.336   1.872
   52I3C     C0 1177   1.860   4.991   1.672
   52I3C     C1 1178   1.897   5.267   1.665
   52I3C     C2 1179   1.779   5.074   1.750
   52I3C     C3 1180   1.966   5.043   1.595
   52I3C     C4 1181   1.799   5.212   1.748
   52I3C     C5 1182   1.980   5.183   1.589
   52I3C     C6 1183   1.671   5.012   1.836
   52I3C     C7 1184   1.914   5.416   1.656
   52I3C     O0 1185   1.718   4.969   1.949
   52I3C     O1 1186   2.005   5.475   1.710
   52I3C     O2 1187   1.556   5.004   1.800
   52I3C     O3 1188   1.822   5.472   1.582
   52I3C     O4 1189   1.823   4.142   1.566
   52I3C     H0 1190   1.662   4.921   1.985
   52I3C     H1 1191   1.837   5.552   1.575
   52I3C     H2 1192   2.037   4.873   1.523
   52I3C     H3 1193   2.114   4.992   1.475
   52I3C     H4 1194   1.765   4.149   1.503
   52I3C     H5 1195   1.786   4.168   1.638
   52I3C     N0 1196   2.050   4.959   1.522
   53I3C     I0 1197   2.119   5.267   3.356
   53I3C     I1 1198   1.819   4.785   3.563
   53I3C     I2 1199   1.684   5.336   3.771
   53I3C     C0 1200   1.860   4.991   3.571
   53I3C     C1 1201   1.897   5.267   3.564
   53I3C     C2 1202   1.779   5.074   3.649
   53I3C     C3 1203   1.966   5.043   3.495
   53I3C     C4 1204   1.799   5.212   3.647
   53I3C     C5 1205   1.980   5.183   3.489
   53I3C     C6 1206   1.671   5.012   3.735
   53I3C     C7 1207   1.914   5.416   3.555
   53I3C     O0 1208   1.718   4.969   3.848
   53I3C     O1 1209   2.005   5.475   3.609
   53I3C     O2 1210   1.556   5.004   3.699
   53I3C     O3 1211   1.822   5.472   3.481
   53I3C     O4 1212   1.823   4.142   3.465
   53I3C     H0 1213   1.662   4.921   3.885
   53I3C     H1 1214   1.837   5.552   3.475
   53I3C     H2 1215   2.037   4.873   3.422
   53I3C     H3 1216   2.114   4.992   3.375
   53I3C     H4 1217   1.765   4.149   3.402
   53I3C     H5 1218   1.786   4.168   3.538
   53I3C     N0 1219   2.050   4.959   3.421
   54I3C     I0 1220   2.119   5.267   5.255
   54I3C     I1 1221   1.819   4.785   5.463
   54I3C     I2 1222   1.684   5.336   5.670
   54I3C     C0 1223   1.860   4.991   5.470
   54I3C     C1 1224   1.897   5.267   5.464
   54I3C     C2 1225   1.779   5.074   5.549
   54I3C     C3 1226   1.966   5.043   5.394
   54I3C     C4 1227   1.799   5.212   5.547
   54I3C     C5 1228   1.980   5.183   5.388
   54I3C     C6 1229   1.671   5.012   5.634
   54I3C     C7 1230   1.914   5.416   5.454
   54I3C     O0 1231   1.718   4.969   5.748
   54I3C     O1 1232   2.005   5.475   5.508
   54I3C     O2 1233   1.556   5.004   5.599
   54I3C     O3 1234   1.822   5.472   5.380
   54I3C     O4 1235   1.823   4.142   5.364
   54I3C     H0 1236   1.662   4.921   5.784
   54I3C     H1 1237   1.837   5.552   5.374
   54I3C     H2 1238   2.037   4.873   5.321
   54I3C     H3 1239   2.114   4.992   5.274
   54I3C     H4 1240   1.765   4.149   5.301
   54I3C     H5 1241   1.786   4.168   5.437
   54I3C     N0 1242   2.050   4.959   5.320
   55I3C     I0 1243   0.203  -0.521   2.398
   55I3C     I1 1244   0.503  -0.039   2.605
   55I3C     I2 1245   0.638  -0.590   2.813
   55I3C     C0 1246   0.462  -0.245   2.613
   55I3C     C1 1247   0.424  -0.521   2.606
   55I3C     C2 1248   0.542  -0.328   2.691
   55I3C     C3 1249   0.356  -0.297   2.536
   55I3C     C4 1250   0.523  -0.465   2.689
   55I3C     C5 1251   0.342  -0.437   2.530
   55I3C     C6 1252   0.650  -0.266   2.776
   55I3C     C7 1253   0.408  -0.670   2.596
   55I3C     O0 1254   0.604  -0.223   2.890
   55I3C     O1 1255   0.317  -0.729   2.651
   55I3C     O2 1256   0.766  -0.259   2.741
   55I3C     O3 1257   0.500  -0.726   2.523
   55I3C     O4 1258   0.499   0.604   2.507
   55I3C     H0 1259   0.660  -0.175   2.926
   55I3C     H1 1260   0.484  -0.807   2.516
   55I3C     H2 1261   0.284  -0.127   2.463
   55I3C     H3 1262   0.207  -0.246   2.416
   55I3C     H4 1263   0.556   0.597   2.444
   55I3C     H5 1264   0.535   0.578   2.579
   55I3C     N0 1265   0.272  -0.213   2.463
   56I3C     I0 1266   0.203  -0.521   4.297
   56I3C     I1 1267   0.503  -0.039   4.504
   56I3C     I2 1268   0.638  -0.590   4.712
   56I3C     C0 1269   0.462  -0.245   4.512
   56I3C     C1 1270   0.424  -0.521   4.505
   56I3C     C2 1271   0.542  -0.328   4.590
   56I3C     C3 1272   0.356  -0.297   4.435
   56I3C     C4 1273   0.523  -0.465   4.588
   56I3C     C5 1274   0.342  -0.437   4.430
   56I3C     C6 1275   0.650  -0.266   4.676
   56I3C     C7 1276   0.408  -0.670   4.496
   56I3C     O0 1277   0.604  -0.223   4.789
   56I3C     O1 1278   0.317  -0.729   4.550
   56I3C     O2 1279   0.766  -0.259   4.640
   56I3C     O3 1280   0.500  -0.726   4.422
   56I3C     O4 1281   0.499   0.604   4.406
   56I3C     H0 1282   0.660  -0.175   4.825
   56I3C     H1 1283   0.484  -0.807   4.415
   56I3C     H2 1284   0.284  -0.127   4.363
   56I3C     H3 1285   0.207  -0.246   4.315
   56I3C     H4 1286   0.556   0.597   4.343
   56I3C     H5 1287   0.535   0.578   4.478
   56I3C     N0 1288   0.272  -0.213   4.362
   57I3C     I0 1289   0.203  -0.521   6.196
   57I3C     I1 1290   0.503  -0.039   6.403
   57I3C     I2 1291   0.638  -0.590   6.611
   57I3C     C0 1292   0.462  -0.245   6.411
   57I3C     C1 1293   0.424  -0.521   6.404
   57I3C     C2 1294   0.542  -0.328   6.489
   57I3C     C3 1295   0.356  -0.297   6.335
   57I3C     C4 1296   0.523  -0.465   6.487
   57I3C     C5 1297   0.342  -0.437   6.329
   57I3C     C6 1298   0.650  -0.266   6.575
   57I3C     C7 1299   0.408  -0.670   6.395
   57I3C     O0 1300   0.604  -0.223   6.688
   57I3C     O1 1301   0.317  -0.729   6.449
   57I3C     O2 1302   0.766  -0.259   6.539
   57I3C     O3 1303   0.500  -0.726   6.321
   57I3C     O4 1304   0.499   0.604   6.305
   57I3C     H0 1305   0.660  -0.175   6.725
   57I3C     H1 1306   0.484  -0.807   6.315
   57I3C     H2 1307   0.284  -0.127   6.262
   57I3C     H3 1308   0.207  -0.246   6.215
   57I3C     H4 1309   0.556   0.597   6.242
   57I3C     H5 1310   0.535   0.578   6.378
   57I3C     N0 1311   0.272  -0.213   6.261
   58I3C     I0 1312   1.133  -0.521   2.398
   58I3C     I1 1313   1.433  -0.039   2.605
   58I3C     I2 1314   1.568  -0.590   2.813
   58I3C     C0 1315   1.392  -0.245   2.613
   58I3C     C1 1316   1.355  -0.521   2.606
   58I3C     C2 1317   1.473  -0.328   2.691
   58I3C     C3 1318   1.286  -0.297   2.536
   58I3C     C4 1319   1.453  -0.465   2.689
   58I3C     C5 1320   1.273  -0.437   2.530
   58I3C     C6 1321   1.581  -0.266   2.776
   58I3C     C7 1322   1.338  -0.670   2.596
   58I3C     O0 1323   1.534  -0.223   2.890
   58I3C     O1 1324   1.247  -0.729   2.651
   58I3C     O2 1325   1.696  -0.259   2.741
   58I3C     O3 1326   1.430  -0.726   2.523
   58I3C     O4 1327   1.429   0.604   2.507
   58I3C     H0 1328   1.590  -0.175   2.926
   58I3C     H1 1329   1.415  -0.807   2.516
   58I3C     H2 1330   1.215  -0.127   2.463
   58I3C     H3 1331   1.138  -0.246   2.416
   58I3C     H4 1332   1.487   0.597   2.444
   58I3C     H5 1333   1.466   0.578   2.579
   58I3C     N0 1334   1.202  -0.213   2.463
   59I3C     I0 1335   1.133  -0.521   4.297
   59I3C     I1 1336   1.433  -0.039   4.504
   59I3C     I2 1337   1.568  -0.590   4.712
   59I3C     C0 1338   1.392  -0.245   4.512
   59I3C     C1 1339   1.355  -0.521   4.505
   59I3C     C2 1340   1.473  -0.328   4.590
   59I3C     C3 1341   1.286  -0.297   4.435
   59I3C     C4 1342   1.453  -0.465   4.588
   59I3C     C5 1343   1.273  -0.437   4.430
   59I3C     C6 1344   1.581  -0.266   4.676
   59I3C     C7 1345   1.338  -0.670   4.496
   59I3C     O0 1346   1.534  -0.223   4.789
   59I3C     O1 1347   1.247  -0.729   4.550
   59I3C     O2 1348   1.696  -0.259   4.640
   59I3C     O3 1349   1.430  -0.726   4.422
   59I3C     O4 1350   1.429   0.604   4.406
   59I3C     H0 1351   1.590  -0.175   4.825
   59I3C     H1 1352   1.415  -0.807   4.415
   59I3C     H2 1353   1.215  -0.127   4.363
   59I3C     H3 1354   1.138  -0.246   4.315
   59I3C     H4 1355   1.487   0.597   4.343
   59I3C     H5 1356   1.466   0.578   4.478
   59I3C     N0 1357   1.202  -0.213   4.362
   60I3C     I0 1358   1.133  -0.521   6.196
   60I3C     I1 1359   1.433  -0.039   6.403
   60I3C     I2 1360   1.568  -0.590   6.611
   60I3C     C0 1361   1.392  -0.245   6.411
   60I3C     C1 1362   1.355  -0.521   6.404
   60I3C     C2 1363   1.473  -0.328   6.489
   60I3C     C3 1364   1.286  -0.297   6.335
   60I3C     C4 1365   1.453  -0.465   6.487
   60I3C     C5 1366   1.273  -0.437   6.329
   60I3C     C6 1367   1.581  -0.266   6.575
   60I3C     C7 1368   1.338  -0.670   6.395
   60I3C     O0 1369   1.534  -0.223   6.688
   60I3C     O1 1370   1.247  -0.729   6.449
   60I3C     O2 1371   1.696  -0.259   6.539
   60I3C     O3 1372   1.430  -0.726   6.321
   60I3C     O4 1373   1.429   0.604   6.305
   60I3C     H0 1374   1.590  -0.175   6.725
   60I3C     H1 1375   1.415  -0.807   6.315
   60I3C     H2 1376   1.215  -0.127   6.262
   60I3C     H3 1377   1.138  -0.246   6.215
   60I3C     H4 1378   1.487   0.597   6.242
   60I3C     H5 1379   1.466   0.578   6.378
   60I3C     N0 1380   1.202  -0.213   6.261
   61I3C     I0 1381   2.064  -0.521   2.398
   61I3C     I1 1382   2.364  -0.039   2.605
   61I3C     I2 1383   2.499  -0.590   2.813
   61I3C     C0 1384   2.322  -0.245   2.613
   61I3C     C1 1385   2.285  -0.521   2.606
   61I3C     C2 1386   2.403  -0.328   2.691
   61I3C     C3 1387   2.216  -0.297   2.536
   61I3C     C4 1388   2.384  -0.465   2.689
   61I3C     C5 1389   2.203  -0.437   2.530
   61I3C     C6 1390   2.511  -0.266   2.776
   61I3C     C7 1391   2.269  -0.670   2.596
   61I3C     O0 1392   2.465  -0.223   2.890
   61I3C     O1 1393   2.177  -0.729   2.651
   61I3C     O2 1394   2.627  -0.259   2.741
   61I3C     O3 1395   2.361  -0.726   2.523
   61I3C     O4 1396   2.360   0.604   2.507
   61I3C     H0 1397   2.521  -0.175   2.926
   61I3C     H1 1398   2.345  -0.807   2.516
   61I3C     H2 1399   2.145  -0.127   2.463
   61I3C     H3 1400   2.068  -0.246   2.416
   61I3C     H4 1401   2.417   0.597   2.444
   61I3C     H5 1402   2.396   0.578   2.579
   61I3C     N0 1403   2.132  -0.213   2.463
   62I3C     I0 1404   2.064  -0.521   4.297
   62I3C     I1 1405   2.364  -0.039   4.504
   62I3C     I2 1406   2.499  -0.590   4.712
   62I3C     C0 1407   2.322  -0.245   4.512
   62I3C     C1 1408   2.285  -0.521   4.505
   62I3C     C2 1409   2.403  -0.328   4.590
   62I3C     C3 1410   2.216  -0.297   4.435
   62I3C     C4 1411   2.384  -0.465   4.588
   62I3C     C5 1412   2.203  -0.437   4.430
   62I3C     C6 1413   2.511  -0.266   4.676
   62I3C     C7 1414   2.269  -0.670   4.496
   62I3C     O0 1415   2.465  -0.223   4.789
   62I3C     O1 1416   2.177  -0.729   4.550
   62I3C     O2 1417   2.627  -0.259   4.640
   62I3C     O3 1418   2.361  -0.726   4.422
   62I3C     O4 1419   2.360   0.604   4.406
   62I3C     H0 1420   2.521  -0.175   4.825
   62I3C     H1 1421   2.345  -0.807   4.415
   62I3C     H2 1422   2.145  -0.127   4.363
   62I3C     H3 1423   2.068  -0.246   4.315
   62I3C     H4 1424   2.417   0.597   4.343
   62I3C     H5 1425   2.396   0.578   4.478
   62I3C     N0 1426   2.132  -0.213   4.362
   63I3C     I0 1427   2.064  -0.521   6.196
   63I3C     I1 1428   2.364  -0.039   6.403
   63I3C     I2 1429   2.499  -0.590   6.611
   63I3C     C0 1430   2.322  -0.245   6.411
   63I3C     C1 1431   2.285  -0.521   6.404
   63I3C     C2 1432   2.403  -0.328   6.489
   63I3C     C3 1433   2.216  -0.297   6.335
   63I3C     C4 1434   2.384  -0.465   6.487
   63I3C     C5 1435   2.203  -0.437   6.329
   63I3C     C6 1436   2.511  -0.266   6.575
   63I3C     C7 1437   2.269  -0.670   6.395
   63I3C     O0 1438   2.465  -0.223   6.688
   63I3C     O1 1439   2.177  -0.729   6.449
   63I3C     O2 1440   2.627  -0.259   6.539
   63I3C     O3 1441   2.361  -0.726   6.321
   63I3C     O4 1442   2.360   0.604   6.305
   63I3C     H0 1443   2.521  -0.175   6.725
   63I3C     H1 1444   2.345  -0.807   6.315
   63I3C     H2 1445   2.145  -0.127   6.262
   63I3C     H3 1446   2.068  -0.246   6.215
   63I3C     H4 1447   2.417   0.597   6.242
   63I3C     H5 1448   2.396   0.578   6.378
   63I3C     N0 1449   2.132  -0.213   6.261
   64I3C     I0 1450   0.203   1.065   2.398
   64I3C     I1 1451   0.503   1.547   2.605
   64I3C     I2 1452   0.638   0.996   2.813
   64I3C     C0 1453   0.462   1.341   2.613
   64I3C     C1 1454   0.424   1.066   2.606
   64I3C     C2 1455   0.542   1.258   2.691
   64I3C     C3 1456   0.356   1.290   2.536
   64I3C     C4 1457   0.523   1.121   2.689
   64I3C     C5 1458   0.342   1.150   2.530
   64I3C     C6 1459   0.650   1.321   2.776
   64I3C     C7 1460   0.408   0.916   2.596
   64I3C     O0 1461   0.604   1.363   2.890
   64I3C     O1 1462   0.317   0.857   2.651
   64I3C     O2 1463   0.766   1.328   2.741
   64I3C     O3 1464   0.500   0.860   2.523
   64I3C     O4 1465   0.499   2.190   2.507
   64I3C     H0 1466   0.660   1.411   2.926
   64I3C     H1 1467   0.484   0.780   2.516
   64I3C     H2 1468   0.284   1.459   2.463
   64I3C     H3 1469   0.207   1.340   2.416
   64I3C     H4 1470   0.556   2.184   2.444
   64I3C     H5 1471   0.535   2.164   2.579
   64I3C     N0 1472   0.272   1.373   2.463
   65I3C     I0 1473   0.203   1.065   4.297
   65I3C     I1 1474   0.503   1.547   4.504
   65I3C     I2 1475   0.638   0.996   4.712
   65I3C     C0 1476   0.462   1.341   4.512
   65I3C     C1 1477   0.424   1.066   4.505
   65I3C     C2 1478   0.542   1.258   4.590
   65I3C     C3 1479   0.356   1.290   4.435
   65I3C     C4 1480   0.523   1.121   4.588
   65I3C     C5 1481   0.342   1.150   4.430
   65I3C     C6 1482   0.650   1.321   4.676
   65I3C     C7 1483   0.408   0.916   4.496
   65I3C     O0 1484   0.604   1.363   4.789
   65I3C     O1 1485   0.317   0.857   4.550
   65I3C     O2 1486   0.766   1.328   4.640
   65I3C     O3 1487   0.500   0.860   4.422
   65I3C     O4 1488   0.499   2.190   4.406
   65I3C     H0 1489   0.660   1.411   4.825
   65I3C     H1 1490   0.484   0.780   4.415
   65I3C     H2 1491   0.284   1.459   4.363
   65I3C     H3 1492   0.207   1.340   4.315
   65I3C     H4 1493   0.556   2.184   4.343
   65I3C     H5 1494   0.535   2.164   4.478
   65I3C     N0 1495   0.272   1.373   4.362
   66I3C     I0 1496   0.203   1.065   6.196
   66I3C     I1 1497   0.503   1.547   6.403
   66I3C     I2 1498   0.638   0.996   6.611
   66I3C     C0 1499   0.462   1.341   6.411
   66I3C     C1 1500   0.424   1.066   6.404
   66I3C     C2 1501   0.542   1.258   6.489
   66I3C     C3 1502   0.356   1.290   6.335
   66I3C     C4 1503   0.523   1.121   6.487
   66I3C     C5 1504   0.342   1.150   6.329
   66I3C     C6 1505   0.650   1.321   6.575
   66I3C     C7 1506   0.408   0.916   6.395
   66I3C     O0 1507   0.604   1.363   6.688
   66I3C     O1 1508   0.317   0.857   6.449
   66I3C     O2 1509   0.766   1.328   6.539
   66I3C     O3 1510   0.500   0.860   6.321
   66I3C     O4 1511   0.499   2.190   6.305
   66I3C     H0 1512   0.660   1.411   6.725
   66I3C     H1 1513   0.484   0.780   6.315
   66I3C     H2 1514   0.284   1.459   6.262
   66I3C     H3 1515   0.207   1.340   6.215
   66I3C     H4 1516   0.556   2.184   6.242
   66I3C     H5 1517   0.535   2.164   6.378
   66I3C     N0 1518   0.272   1.373   6.261
   67I3C     I0 1519   1.133   1.065   2.398
   67I3C     I1 1520   1.433   1.547   2.605
   67I3C     I2 1521   1.568   0.996   2.813
   67I3C     C0 1522   1.392   1.341   2.613
   67I3C     C1 1523   1.355   1.066   2.606
   67I3C     C2 1524   1.473   1.258   2.691
   67I3C     C3 1525   1.286   1.290   2.536
   67I3C     C4 1526   1.453   1.121   2.689
   67I3C     C5 1527   1.273   1.150   2.530
   67I3C     C6 1528   1.581   1.321   2.776
   67I3C     C7 1529   1.338   0.916   2.596
   67I3C     O0 1530   1.534   1.363   2.890
   67I3C     O1 1531   1.247   0.857   2.651
   67I3C     O2 1532   1.696   1.328   2.741
   67I3C     O3 1533   1.430   0.860   2.523
   67I3C     O4 1534   1.429   2.190   2.507
   67I3C     H0 1535   1.590   1.411   2.926
   67I3C     H1 1536   1.415   0.780   2.516
   67I3C     H2 1537   1.215   1.459   2.463
   67I3C     H3 1538   1.138   1.340   2.416
   67I3C     H4 1539   1.487   2.184   2.444
   67I3C     H5 1540   1.466   2.164   2.579
   67I3C     N0 1541   1.202   1.373   2.463
   68I3C     I0 1542   1.133   1.065   4.297
   68I3C     I1 1543   1.433   1.547   4.504
   68I3C     I2 1544   1.568   0.996   4.712
   68I3C     C0 1545   1.392   1.341   4.512
   68I3C     C1 1546   1.355   1.066   4.505
   68I3C     C2 1547   1.473   1.258   4.590
   68I3C     C3 1548   1.286   1.290   4.435
   68I3C     C4 1549   1.453   1.121   4.588
   68I3C     C5 1550   1.273   1.150   4.430
   68I3C     C6 1551   1.581   1.321   4.676
   68I3C     C7 1552   1.338   0.916   4.496
   68I3C     O0 1553   1.534   1.363   4.789
   68I3C     O1 1554   1.247   0.857   4.550
   68I3C     O2 1555   1.696   1.328   4.640
   68I3C     O3 1556   1.430   0.860   4.422
   68I3C     O4 1557   1.429   2.190   4.406
   68I3C     H0 1558   1.590   1.411   4.825
   68I3C     H1 1559   1.415   0.780   4.415
   68I3C     H2 1560   1.215   1.459   4.363
   68I3C     H3 1561   1.138   1.340   4.315
   68I3C     H4 1562   1.487   2.184   4.343
   68I3C     H5 1563   1.466   2.164   4.478
   68I3C     N0 1564   1.202   1.373   4.362
   69I3C     I0 1565   1.133   1.065   6.196
   69I3C     I1 1566   1.433   1.547   6.403
   69I3C     I2 1567   1.568   0.996   6.611
   69I3C     C0 1568   1.392   1.341   6.411
   69I3C     C1 1569   1.355   1.066   6.404
   69I3C     C2 1570   1.473   1.258   6.489
   69I3C     C3 1571   1.286   1.290   6.335
   69I3C     C4 1572   1.453   1.121   6.487
   69I3C     C5 1573   1.273   1.150   6.329
   69I3C     C6 1574   1.581   1.321   6.575
   69I3C     C7 1575   1.338   0.916   6.395
   69I3C     O0 1576   1.534   1.363   6.688
   69I3C     O1 1577   1.247   0.857   6.449
   69I3C     O2 1578   1.696   1.328   6.539
   69I3C     O3 1579   1.430   0.860   6.321
   69I3C     O4 1580   1.429   2.190   6.305
   69I3C     H0 1581   1.590   1.411   6.725
   69I3C     H1 1582   1.415   0.780   6.315
   69I3C     H2 1583   1.215   1.459   6.262
   69I3C     H3 1584   1.138   1.340   6.215
   69I3C     H4 1585   1.487   2.184   6.242
   69I3C     H5 1586   1.466   2.164   6.378
   69I3C     N0 1587   1.202   1.373   6.261
   70I3C     I0 1588   2.064   1.065   2.398
   70I3C     I1 1589   2.364   1.547   2.605
   70I3C     I2 1590   2.499   0.996   2.813
   70I3C     C0 1591   2.322   1.341   2.613
   70I3C     C1 1592   2.285   1.066   2.606
   70I3C     C2 1593   2.403   1.258   2.691
   70I3C     C3 1594   2.216   1.290   2.536
   70I3C     C4 1595   2.384   1.121   2.689
   70I3C     C5 1596   2.203   1.150   2.530
   70I3C     C6 1597   2.511   1.321   2.776
   70I3C     C7 1598   2.269   0.916   2.596
   70I3C     O0 1599   2.465   1.363   2.890
   70I3C     O1 1600   2.177   0.857   2.651
   70I3C     O2 1601   2.627   1.328   2.741
   70I3C     O3 1602   2.361   0.860   2.523
   70I3C     O4 1603   2.360   2.190   2.507
   70I3C     H0 1604   2.521   1.411   2.926
   70I3C     H1 1605   2.345   0.780   2.516
   70I3C     H2 1606   2.145   1.459   2.463
   70I3C     H3 1607   2.068   1.340   2.416
   70I3C     H4 1608   2.417   2.184   2.444
   70I3C     H5 1609   2.396   2.164   2.579
   70I3C     N0 1610   2.132   1.373   2.463
   71I3C     I0 1611   2.064   1.065   4.297
   71I3C     I1 1612   2.364   1.547   4.504
   71I3C     I2 1613   2.499   0.996   4.712
   71I3C     C0 1614   2.322   1.341   4.512
   71I3C     C1 1615   2.285   1.066   4.505
   71I3C     C2 1616   2.403   1.258   4.590
   71I3C     C3 1617   2.216   1.290   4.435
   71I3C     C4 1618   2.384   1.121   4.588
   71I3C     C5 1619   2.203   1.150   4.430
   71I3C     C6 1620   2.511   1.321   4.676
   71I3C     C7 1621   2.269   0.916   4.496
   71I3C     O0 1622   2.465   1.363   4.789
   71I3C     O1 1623   2.177   0.857   4.550
   71I3C     O2 1624   2.627   1.328   4.640
   71I3C     O3 1625   2.361   0.860   4.422
   71I3C     O4 1626   2.360   2.190   4.406
   71I3C     H0 1627   2.521   1.411   4.825
   71I3C     H1 1628   2.345   0.780   4.415
   71I3C     H2 1629   2.145   1.459   4.363
   71I3C     H3 1630   2.068   1.340   4.315
   71I3C     H4 1631   2.417   2.184   4.343
   71I3C     H5 1632   2.396   2.164   4.478
   71I3C     N0 1633   2.132   1.373   4.362
   72I3C     I0 1634   2.064   1.065   6.196
   72I3C     I1 1635   2.364   1.547   6.403
   72I3C     I2 1636   2.499   0.996   6.611
   72I3C     C0 1637   2.322   1.341   6.411
   72I3C     C1 1638   2.285   1.066   6.404
   72I3C     C2 1639   2.403   1.258   6.489
   72I3C     C3 1640   2.216   1.290   6.335
   72I3C     C4 1641   2.384   1.121   6.487
   72I3C     C5 1642   2.203   1.150   6.329
   72I3C     C6 1643   2.511   1.321   6.575
   72I3C     C7 1644   2.269   0.916   6.395
   72I3C     O0 1645   2.465   1.363   6.688
   72I3C     O1 1646   2.177   0.857   6.449
   72I3C     O2 1647   2.627   1.328   6.539
   72I3C     O3 1648   2.361   0.860   6.321
   72I3C     O4 1649   2.360   2.190   6.305
   72I3C     H0 1650   2.521   1.411   6.725
   72I3C     H1 1651   2.345   0.780   6.315
   72I3C     H2 1652   2.145   1.459   6.262
   72I3C     H3 1653   2.068   1.340   6.215
   72I3C     H4 1654   2.417   2.184   6.242
   72I3C     H5 1655   2.396   2.164   6.378
   72I3C     N0 1656   2.132   1.373   6.261
   73I3C     I0 1657   0.203   2.651   2.398
   73I3C     I1 1658   0.503   3.133   2.605
   73I3C     I2 1659   0.638   2.582   2.813
   73I3C     C0 1660   0.462   2.927   2.613
   73I3C     C1 1661   0.424   2.652   2.606
   73I3C     C2 1662   0.542   2.844   2.691
   73I3C     C3 1663   0.356   2.876   2.536
   73I3C     C4 1664   0.523   2.707   2.689
   73I3C     C5 1665   0.342   2.736   2.530
   73I3C     C6 1666   0.650   2.907   2.776
   73I3C     C7 1667   0.408   2.502   2.596
   73I3C     O0 1668   0.604   2.950   2.890
   73I3C     O1 1669   0.317   2.443   2.651
   73I3C     O2 1670   0.766   2.914   2.741
   73I3C     O3 1671   0.500   2.446   2.523
   73I3C     O4 1672   0.499   3.777   2.507
   73I3C     H0 1673   0.660   2.997   2.926
   73I3C     H1 1674   0.484   2.366   2.516
   73I3C     H2 1675   0.284   3.045   2.463
   73I3C     H3 1676   0.207   2.926   2.416
   73I3C     H4 1677   0.556   3.770   2.444
   73I3C     H5 1678   0.535   3.751   2.579
   73I3C     N0 1679   0.272   2.960   2.463
   74I3C     I0 1680   0.203   2.651   4.297
   74I3C     I1 1681   0.503   3.133   4.504
   74I3C     I2 1682   0.638   2.582   4.712
   74I3C     C0 1683   0.462   2.927   4.512
   74I3C     C1 1684   0.424   2.652   4.505
   74I3C     C2 1685   0.542   2.844   4.590
   74I3C     C3 1686   0.356   2.876   4.435
   74I3C     C4 1687   0.523   2.707   4.588
   74I3C     C5 1688   0.342   2.736   4.430
   74I3C     C6 1689   0.650   2.907   4.676
   74I3C     C7 1690   0.408   2.502   4.496
   74I3C     O0 1691   0.604   2.950   4.789
   74I3C     O1 1692   0.317   2.443   4.550
   74I3C     O2 1693   0.766   2.914   4.640
   74I3C     O3 1694   0.500   2.446   4.422
   74I3C     O4 1695   0.499   3.777   4.406
   74I3C     H0 1696   0.660   2.997   4.825
   74I3C     H1 1697   0.484   2.366   4.415
   74I3C     H2 1698   0.284   3.045   4.363
   74I3C     H3 1699   0.207   2.926   4.315
   74I3C     H4 1700   0.556   3.770   4.343
   74I3C     H5 1701   0.535   3.751   4.478
   74I3C     N0 1702   0.272   2.960   4.362
   75I3C     I0 1703   0.203   2.651   6.196
   75I3C     I1 1704   0.503   3.133   6.403
   75I3C     I2 1705   0.638   2.582   6.611
   75I3C     C0 1706   0.462   2.927   6.411
   75I3C     C1 1707   0.424   2.652   6.404
   75I3C     C2 1708   0.542   2.844   6.489
   75I3C     C3 1709   0.356   2.876   6.335
   75I3C     C4 1710   0.523   2.707   6.487
   75I3C     C5 1711   0.342   2.736   6.329
   75I3C     C6 1712   0.650   2.907   6.575
   75I3C     C7 1713   0.408   2.502   6.395
   75I3C     O0 1714   0.604   2.950   6.688
   75I3C     O1 1715   0.317   2.443   6.449
   75I3C     O2 1716   0.766   2.914   6.539
   75I3C     O3 1717   0.500   2.446   6.321
   75I3C     O4 1718   0.499   3.777   6.305
   75I3C     H0 1719   0.660   2.997   6.725
   75I3C     H1 1720   0.484   2.366   6.315
   75I3C     H2 1721   0.284   3.045   6.262
   75I3C     H3 1722   0.207   2.926   6.215
   75I3C     H4 1723   0.556   3.770   6.242
   75I3C     H5 1724   0.535   3.751   6.378
   75I3C     N0 1725   0.272   2.960   6.261
   76I3C     I0 1726   1.133   2.651   2.398
   76I3C     I1 1727   1.433   3.133   2.605
   76I3C     I2 1728   1.568   2.582   2.813
   76I3C     C0 1729   1.392   2.927   2.613
   76I3C     C1 1730   1.355   2.652   2.606
   76I3C     C2 1731   1.473   2.844   2.691
   76I3C     C3 1732   1.286   2.876   2.536
   76I3C     C4 1733   1.453   2.707   2.689
   76I3C     C5 1734   1.273   2.736   2.530
   76I3C     C6 1735   1.581   2.907   2.776
   76I3C     C7 1736   1.338   2.502   2.596
   76I3C     O0 1737   1.534   2.950   2.890
   76I3C     O1 1738   1.247   2.443   2.651
   76I3C     O2 1739   1.696   2.914   2.741
   76I3C     O3 1740   1.430   2.446   2.523
   76I3C     O4 1741   1.429   3.777   2.507
   76I3C     H0 1742   1.590   2.997   2.926
   76I3C     H1 1743   1.415   2.366   2.516
   76I3C     H2 1744   1.215   3.045   2.463
   76I3C     H3 1745   1.138   2.926   2.416
   76I3C     H4 1746   1.487   3.770   2.444
   76I3C     H5 1747   1.466   3.751   2.579
   76I3C     N0 1748   1.202   2.960   2.463
   77I3C     I0 1749   1.133   2.651   4.297
   77I3C     I1 1750   1.433   3.133   4.504
   77I3C     I2 1751   1.568   2.582   4.712
   77I3C     C0 1752   1.392   2.927   4.512
   77I3C     C1 1753   1.355   2.652   4.505
   77I3C     C2 1754   1.473   2.844   4.590
   77I3C     C3 1755   1.286   2.876   4.435
   77I3C     C4 1756   1.453   2.707   4.588
   77I3C     C5 1757   1.273   2.736   4.430
   77I3C     C6 1758   1.581   2.907   4.676
   77I3C     C7 1759   1.338   2.502   4.496
   77I3C     O0 1760   1.534   2.950   4.789
   77I3C     O1 1761   1.247   2.443   4.550
   77I3C     O2 1762   1.696   2.914   4.640
   77I3C     O3 1763   1.430   2.446   4.422
   77I3C     O4 1764   1.429   3.777   4.406
   77I3C     H0 1765   1.590   2.997   4.825
   77I3C     H1 1766   1.415   2.366   4.415
   77I3C     H2 1767   1.215   3.045   4.363
   77I3C     H3 1768   1.138   2.926   4.315
   77I3C     H4 1769   1.487   3.770   4.343
   77I3C     H5 1770   1.466   3.751   4.478
   77I3C     N0 1771   1.202   2.960   4.362
   78I3C     I0 1772   1.133   2.651   6.196
   78I3C     I1 1773   1.433   3.133   6.403
   78I3C     I2 1774   1.568   2.582   6.611
   78I3C     C0 1775   1.392   2.927   6.411
   78I3C     C1 1776   1.355   2.652   6.404
   78I3C     C2 1777   1.473   2.844   6.489
   78I3C     C3 1778   1.286   2.876   6.335
   78I3C     C4 1779   1.453   2.707   6.487
   78I3C     C5 1780   1.273   2.736   6.329
   78I3C     C6 1781   1.581   2.907   6.575
   78I3C     C7 1782   1.338   2.502   6.395
   78I3C     O0 1783   1.534   2.950   6.688
   78I3C     O1 1784   1.247   2.443   6.449
   78I3C     O2 1785   1.696   2.914   6.539
   78I3C     O3 1786   1.430   2.446   6.321
   78I3C     O4 1787   1.429   3.777   6.305
   78I3C     H0 1788   1.590   2.997   6.725
   78I3C     H1 1789   1.415   2.366   6.315
   78I3C     H2 1790   1.215   3.045   6.262
   78I3C     H3 1791   1.138   2.926   6.215
   78I3C     H4 1792   1.487   3.770   6.242
   78I3C     H5 1793   1.466   3.751   6.378
   78I3C     N0 1794   1.202   2.960   6.261
   79I3C     I0 1795   2.064   2.651   2.398
   79I3C     I1 1796   2.364   3.133   2.605
   79I3C     I2 1797   2.499   2.582   2.813
   79I3C     C0 1798   2.322   2.927   2.613
   79I3C     C1 1799   2.285   2.652   2.606
   79I3C     C2 1800   2.403   2.844   2.691
   79I3C     C3 1801   2.216   2.876   2.536
   79I3C     C4 1802   2.384   2.707   2.689
   79I3C     C5 1803   2.203   2.736   2.530
   79I3C     C6 1804   2.511   2.907   2.776
   79I3C     C7 1805   2.269   2.502   2.596
   79I3C     O0 1806   2.465   2.950   2.890
   79I3C     O1 1807   2.177   2.443   2.651
   79I3C     O2 1808   2.627   2.914   2.741
   79I3C     O3 1809   2.361   2.446   2.523
   79I3C     O4 1810   2.360   3.777   2.507
   79I3C     H0 1811   2.521   2.997   2.926
   79I3C     H1 1812   2.345   2.366   2.516
   79I3C     H2 1813   2.145   3.045   2.463
   79I3C     H3 1814   2.068   2.926   2.416
   79I3C     H4 1815   2.417   3.770   2.444
   79I3C     H5 1816   2.396   3.751   2.579
   79I3C     N0 1817   2.132   2.960   2.463
   80I3C     I0 1818   2.064   2.651   4.297
   80I3C     I1 1819   2.364   3.133   4.504
   80I3C     I2 1820   2.499   2.582   4.712
   80I3C     C0 1821   2.322   2.927   4.512
   80I3C     C1 1822   2.285   2.652   4.505
   80I3C     C2 1823   2.403   2.844   4.590
   80I3C     C3 1824   2.216   2.876   4.435
   80I3C     C4 1825   2.384   2.707   4.588
   80I3C     C5 1826   2.203   2.736   4.430
   80I3C     C6 1827   2.511   2.907   4.676
   80I3C     C7 1828   2.269   2.502   4.496
   80I3C     O0 1829   2.465   2.950   4.789
   80I3C     O1 1830   2.177   2.443   4.550
   80I3C     O2 1831   2.627   2.914   4.640
   80I3C     O3 1832   2.361   2.446   4.422
   80I3C     O4 1833   2.360   3.777   4.406
   80I3C     H0 1834   2.521   2.997   4.825
   80I3C     H1 1835   2.345   2.366   4.415
   80I3C     H2 1836   2.145   3.045   4.363
   80I3C     H3 1837   2.068   2.926   4.315
   80I3C     H4 1838   2.417   3.770   4.343
   80I3C     H5 1839   2.396   3.751   4.478
   80I3C     N0 1840   2.132   2.960   4.362
   81I3C     I0 1841   2.064   2.651   6.196
   81I3C     I1 1842   2.364   3.133   6.403
   81I3C     I2 1843   2.499   2.582   6.611
   81I3C     C0 1844   2.322   2.927   6.411
   81I3C     C1 1845   2.285   2.652   6.404
   81I3C     C2 1846   2.403   2.844   6.489
   81I3C     C3 1847   2.216   2.876   6.335
   81I3C     C4 1848   2.384   2.707   6.487
   81I3C     C5 1849   2.203   2.736   6.329
   81I3C     C6 1850   2.511   2.907   6.575
   81I3C     C7 1851   2.269   2.502   6.395
   81I3C     O0 1852   2.465   2.950   6.688
   81I3C     O1 1853   2.177   2.443   6.449
   81I3C     O2 1854   2.627   2.914   6.539
   81I3C     O3 1855   2.361   2.446   6.321
   81I3C     O4 1856   2.360   3.777   6.305
   81I3C     H0 1857   2.521   2.997   6.725
   81I3C     H1 1858   2.345   2.366   6.315
   81I3C     H2 1859   2.145   3.045   6.262
   81I3C     H3 1860   2.068   2.926   6.215
   81I3C     H4 1861   2.417   3.770   6.242
   81I3C     H5 1862   2.396   3.751   6.378
   81I3C     N0 1863   2.132   2.960   6.261
   82I3C     I0 1864   0.664   1.308  -0.516
   82I3C     I1 1865   0.964   0.826  -0.723
   82I3C     I2 1866   1.098   1.377  -0.931
   82I3C     C0 1867   0.922   1.032  -0.731
   82I3C     C1 1868   0.885   1.308  -0.724
   82I3C     C2 1869   1.003   1.115  -0.809
   82I3C     C3 1870   0.816   1.083  -0.655
   82I3C     C4 1871   0.984   1.252  -0.807
   82I3C     C5 1872   0.803   1.224  -0.649
   82I3C     C6 1873   1.111   1.053  -0.895
   82I3C     C7 1874   0.868   1.457  -0.715
   82I3C     O0 1875   1.065   1.010  -1.008
   82I3C     O1 1876   0.777   1.516  -0.769
   82I3C     O2 1877   1.227   1.045  -0.859
   82I3C     O3 1878   0.960   1.513  -0.641
   82I3C     O4 1879   0.960   0.183  -0.625
   82I3C     H0 1880   1.121   0.962  -1.044
   82I3C     H1 1881   0.945   1.593  -0.635
   82I3C     H2 1882   0.745   0.914  -0.582
   82I3C     H3 1883   0.668   1.033  -0.535
   82I3C     H4 1884   1.017   0.189  -0.562
   82I3C     H5 1885   0.996   0.209  -0.698
   82I3C     N0 1886   0.732   0.999  -0.581
   83I3C     I0 1887   0.664   1.308   1.383
   83I3C     I1 1888   0.964   0.826   1.176
   83I3C     I2 1889   1.098   1.377   0.968
   83I3C     C0 1890   0.922   1.032   1.168
   83I3C     C1 1891   0.885   1.308   1.175
   83I3C     C2 1892   1.003   1.115   1.090
   83I3C     C3 1893   0.816   1.083   1.245
   83I3C     C4 1894   0.984   1.252   1.092
   83I3C     C5 1895   0.803   1.224   1.250
   83I3C     C6 1896   1.111   1.053   1.004
   83I3C     C7 1897   0.868   1.457   1.184
   83I3C     O0 1898   1.065   1.010   0.891
   83I3C     O1 1899   0.777   1.516   1.130
   83I3C     O2 1900   1.227   1.045   1.040
   83I3C     O3 1901   0.960   1.513   1.258
   83I3C     O4 1902   0.960   0.183   1.274
   83I3C     H0 1903   1.121   0.962   0.855
   83I3C     H1 1904   0.945   1.593   1.265
   83I3C     H2 1905   0.745   0.914   1.317
   83I3C     H3 1906   0.668   1.033   1.365
   83I3C     H4 1907   1.017   0.189   1.337
   83I3C     H5 1908   0.996   0.209   1.202
   83I3C     N0 1909   0.732   0.999   1.318
   84I3C     I0 1910   0.664   1.308   3.283
   84I3C     I1 1911   0.964   0.826   3.075
   84I3C     I2 1912   1.098   1.377   2.867
   84I3C     C0 1913   0.922   1.032   3.067
   84I3C     C1 1914   0.885   1.308   3.074
   84I3C     C2 1915   1.003   1.115   2.989
   84I3C     C3 1916   0.816   1.083   3.144
   84I3C     C4 1917   0.984   1.252   2.991
   84I3C     C5 1918   0.803   1.224   3.150
   84I3C     C6 1919   1.111   1.053   2.904
   84I3C     C7 1920   0.868   1.457   3.084
   84I3C     O0 1921   1.065   1.010   2.790
   84I3C     O1 1922   0.777   1.516   3.030
   84I3C     O2 1923   1.227   1.045   2.939
   84I3C     O3 1924   0.960   1.513   3.158
   84I3C     O4 1925   0.960   0.183   3.173
   84I3C     H0 1926   1.121   0.962   2.754
   84I3C     H1 1927   0.945   1.593   3.164
   84I3C     H2 1928   0.745   0.914   3.217
   84I3C     H3 1929   0.668   1.033   3.264
   84I3C     H4 1930   1.017   0.189   3.237
   84I3C     H5 1931   0.996   0.209   3.101
   84I3C     N0 1932   0.732   0.999   3.218
   85I3C     I0 1933   1.594   1.308  -0.516
   85I3C     I1 1934   1.894   0.826  -0.723
   85I3C     I2 1935   2.029   1.377  -0.931
   85I3C     C0 1936   1.853   1.032  -0.731
   85I3C     C1 1937   1.815   1.308  -0.724
   85I3C     C2 1938   1.934   1.115  -0.809
   85I3C     C3 1939   1.747   1.083  -0.655
   85I3C     C4 1940   1.914   1.252  -0.807
   85I3C     C5 1941   1.733   1.224  -0.649
   85I3C     C6 1942   2.042   1.053  -0.895
   85I3C     C7 1943   1.799   1.457  -0.715
   85I3C     O0 1944   1.995   1.010  -1.008
   85I3C     O1 1945   1.708   1.516  -0.769
   85I3C     O2 1946   2.157   1.045  -0.859
   85I3C     O3 1947   1.891   1.513  -0.641
   85I3C     O4 1948   1.890   0.183  -0.625
   85I3C     H0 1949   2.051   0.962  -1.044
   85I3C     H1 1950   1.875   1.593  -0.635
   85I3C     H2 1951   1.676   0.914  -0.582
   85I3C     H3 1952   1.598   1.033  -0.535
   85I3C     H4 1953   1.947   0.189  -0.562
   85I3C     H5 1954   1.927   0.209  -0.698
   85I3C     N0 1955   1.663   0.999  -0.581
   86I3C     I0 1956   1.594   1.308   1.383
   86I3C     I1 1957   1.894   0.826   1.176
   86I3C     I2 1958   2.029   1.377   0.968
   86I3C     C0 1959   1.853   1.032   1.168
   86I3C     C1 1960   1.815   1.308   1.175
   86I3C     C2 1961   1.934   1.115   1.090
   86I3C     C3 1962   1.747   1.083   1.245
   86I3C     C4 1963   1.914   1.252   1.092
   86I3C     C5 1964   1.733   1.224   1.250
   86I3C     C6 1965   2.042   1.053   1.004
   86I3C     C7 1966   1.799   1.457   1.184
   86I3C     O0 1967   1.995   1.010   0.891
   86I3C     O1 1968   1.708   1.516   1.130
   86I3C     O2 1969   2.157   1.045   1.040
   86I3C     O3 1970   1.891   1.513   1.258
   86I3C     O4 1971   1.890   0.183   1.274
   86I3C     H0 1972   2.051   0.962   0.855
   86I3C     H1 1973   1.875   1.593   1.265
   86I3C     H2 1974   1.676   0.914   1.317
   86I3C     H3 1975   1.598   1.033   1.365
   86I3C     H4 1976   1.947   0.189   1.337
   86I3C     H5 1977   1.927   0.209   1.202
   86I3C     N0 1978   1.663   0.999   1.318
   87I3C     I0 1979   1.594   1.308   3.283
   87I3C     I1 1980   1.894   0.826   3.075
   87I3C     I2 1981   2.029   1.377   2.867
   87I3C     C0 1982   1.853   1.032   3.067
   87I3C     C1 1983   1.815   1.308   3.074
   87I3C     C2 1984   1.934   1.115   2.989
   87I3C     C3 1985   1.747   1.083   3.144
   87I3C     C4 1986   1.914   1.252   2.991
   87I3C     C5 1987   1.733   1.224   3.150
   87I3C     C6 1988   2.042   1.053   2.904
   87I3C     C7 1989   1.799   1.457   3.084
   87I3C     O0 1990   1.995   1.010   2.790
   87I3C     O1 1991   1.708   1.516   3.030
   87I3C     O2 1992   2.157   1.045   2.939
   87I3C     O3 1993   1.891   1.513   3.158
   87I3C     O4 1994   1.890   0.183   3.173
   87I3C     H0 1995   2.051   0.962   2.754
   87I3C     H1 1996   1.875   1.593   3.164
   87I3C     H2 1997   1.676   0.914   3.217
   87I3C     H3 1998   1.598   1.033   3.264
   87I3C     H4 1999   1.947   0.189   3.237
   87I3C     H5 2000   1.927   0.209   3.101
   87I3C     N0 2001   1.663   0.999   3.218
   88I3C     I0 2002   2.525   1.308  -0.516
   88I3C     I1 2003   2.825   0.826  -0.723
   88I3C     I2 2004   2.959   1.377  -0.931
   88I3C     C0 2005   2.783   1.032  -0.731
   88I3C     C1 2006   2.746   1.308  -0.724
   88I3C     C2 2007   2.864   1.115  -0.809
   88I3C     C3 2008   2.677   1.083  -0.655
   88I3C     C4 2009   2.845   1.252  -0.807
   88I3C     C5 2010   2.664   1.224  -0.649
   88I3C     C6 2011   2.972   1.053  -0.895
   88I3C     C7 2012   2.729   1.457  -0.715
   88I3C     O0 2013   2.925   1.010  -1.008
   88I3C     O1 2014   2.638   1.516  -0.769
   88I3C     O2 2015   3.087   1.045  -0.859
   88I3C     O3 2016   2.821   1.513  -0.641
   88I3C     O4 2017   2.821   0.183  -0.625
   88I3C     H0 2018   2.982   0.962  -1.044
   88I3C     H1 2019   2.806   1.593  -0.635
   88I3C     H2 2020   2.606   0.914  -0.582
   88I3C     H3 2021   2.529   1.033  -0.535
   88I3C     H4 2022   2.878   0.189  -0.562
   88I3C     H5 2023   2.857   0.209  -0.698
   88I3C     N0 2024   2.593   0.999  -0.581
   89I3C     I0 2025   2.525   1.308   1.383
   89I3C     I1 2026   2.825   0.826   1.176
   89I3C     I2 2027   2.959   1.377   0.968
   89I3C     C0 2028   2.783   1.032   1.168
   89I3C     C1 2029   2.746   1.308   1.175
   89I3C     C2 2030   2.864   1.115   1.090
   89I3C     C3 2031   2.677   1.083   1.245
   89I3C     C4 2032   2.845   1.252   1.092
   89I3C     C5 2033   2.664   1.224   1.250
   89I3C     C6 2034   2.972   1.053   1.004
   89I3C     C7 2035   2.729   1.457   1.184
   89I3C     O0 2036   2.925   1.010   0.891
   89I3C     O1 2037   2.638   1.516   1.130
   89I3C     O2 2038   3.087   1.045   1.040
   89I3C     O3 2039   2.821   1.513   1.258
   89I3C     O4 2040   2.821   0.183   1.274
   89I3C     H0 2041   2.982   0.962   0.855
   89I3C     H1 2042   2.806   1.593   1.265
   89I3C     H2 2043   2.606   0.914   1.317
   89I3C     H3 2044   2.529   1.033   1.365
   89I3C     H4 2045   2.878   0.189   1.337
   89I3C     H5 2046   2.857   0.209   1.202
   89I3C     N0 2047   2.593   0.999   1.318
   90I3C     I0 2048   2.525   1.308   3.283
   90I3C     I1 2049   2.825   0.826   3.075
   90I3C     I2 2050   2.959   1.377   2.867
   90I3C     C0 2051   2.783   1.032   3.067
   90I3C     C1 2052   2.746   1.308   3.074
   90I3C     C2 2053   2.864   1.115   2.989
   90I3C     C3 2054   2.677   1.083   3.144
   90I3C     C4 2055   2.845   1.252   2.991
   90I3C     C5 2056   2.664   1.224   3.150
   90I3C     C6 2057   2.972   1.053   2.904
   90I3C     C7 2058   2.729   1.457   3.084
   90I3C     O0 2059   2.925   1.010   2.790
   90I3C     O1 2060   2.638   1.516   3.030
   90I3C     O2 2061   3.087   1.045   2.939
   90I3C     O3 2062   2.821   1.513   3.158
   90I3C     O4 2063   2.821   0.183   3.173
   90I3C     H0 2064   2.982   0.962   2.754
   90I3C     H1 2065   2.806   1.593   3.164
   90I3C     H2 2066   2.606   0.914   3.217
   90I3C     H3 2067   2.529   1.033   3.264
   90I3C     H4 2068   2.878   0.189   3.237
   90I3C     H5 2069   2.857   0.209   3.101
   90I3C     N0 2070   2.593   0.999   3.218
   91I3C     I0 2071   0.664   2.894  -0.516
   91I3C     I1 2072   0.964   2.412  -0.723
   91I3C     I2 2073   1.098   2.963  -0.931
   91I3C     C0 2074   0.922   2.618  -0.731
   91I3C     C1 2075   0.885   2.894  -0.724
   91I3C     C2 2076   1.003   2.701  -0.809
   91I3C     C3 2077   0.816   2.670  -0.655
   91I3C     C4 2078   0.984   2.839  -0.807
   91I3C     C5 2079   0.803   2.810  -0.649
   91I3C     C6 2080   1.111   2.639  -0.895
   91I3C     C7 2081   0.868   3.043  -0.715
   91I3C     O0 2082   1.065   2.596  -1.008
   91I3C     O1 2083   0.777   3.102  -0.769
   91I3C     O2 2084   1.227   2.632  -0.859
   91I3C     O3 2085   0.960   3.099  -0.641
   91I3C     O4 2086   0.960   1.769  -0.625
   91I3C     H0 2087   1.121   2.548  -1.044
   91I3C     H1 2088   0.945   3.179  -0.635
   91I3C     H2 2089   0.745   2.500  -0.582
   91I3C     H3 2090   0.668   2.619  -0.535
   91I3C     H4 2091   1.017   1.776  -0.562
   91I3C     H5 2092   0.996   1.795  -0.698
   91I3C     N0 2093   0.732   2.586  -0.581
   92I3C     I0 2094   0.664   2.894   1.383
   92I3C     I1 2095   0.964   2.412   1.176
   92I3C     I2 2096   1.098   2.963   0.968
   92I3C     C0 2097   0.922   2.618   1.168
   92I3C     C1 2098   0.885   2.894   1.175
   92I3C     C2 2099   1.003   2.701   1.090
   92I3C     C3 2100   0.816   2.670   1.245
   92I3C     C4 2101   0.984   2.839   1.092
   92I3C     C5 2102   0.803   2.810   1.250
   92I3C     C6 2103   1.111   2.639   1.004
   92I3C     C7 2104   0.868   3.043   1.184
   92I3C     O0 2105   1.065   2.596   0.891
   92I3C     O1 2106   0.777   3.102   1.130
   92I3C     O2 2107   1.227   2.632   1.040
   92I3C     O3 2108   0.960   3.099   1.258
   92I3C     O4 2109   0.960   1.769   1.274
   92I3C     H0 2110   1.121   2.548   0.855
   92I3C     H1 2111   0.945   3.179   1.265
   92I3C     H2 2112   0.745   2.500   1.317
   92I3C     H3 2113   0.668   2.619   1.365
   92I3C     H4 2114   1.017   1.776   1.337
   92I3C     H5 2115   0.996   1.795   1.202
   92I3C     N0 2116   0.732   2.586   1.318
   93I3C     I0 2117   0.664   2.894   3.283
   93I3C     I1 2118   0.964   2.412   3.075
   93I3C     I2 2119   1.098   2.963   2.867
   93I3C     C0 2120   0.922   2.618   3.067
   93I3C     C1 2121   0.885   2.894   3.074
   93I3C     C2 2122   1.003   2.701   2.989
   93I3C     C3 2123   0.816   2.670   3.144
   93I3C     C4 2124   0.984   2.839   2.991
   93I3C     C5 2125   0.803   2.810   3.150
   93I3C     C6 2126   1.111   2.639   2.904
   93I3C     C7 2127   0.868   3.043   3.084
   93I3C     O0 2128   1.065   2.596   2.790
   93I3C     O1 2129   0.777   3.102   3.030
   93I3C     O2 2130   1.227   2.632   2.939
   93I3C     O3 2131   0.960   3.099   3.158
   93I3C     O4 2132   0.960   1.769   3.173
   93I3C     H0 2133   1.121   2.548   2.754
   93I3C     H1 2134   0.945   3.179   3.164
   93I3C     H2 2135   0.745   2.500   3.217
   93I3C     H3 2136   0.668   2.619   3.264
   93I3C     H4 2137   1.017   1.776   3.237
   93I3C     H5 2138   0.996   1.795   3.101
   93I3C     N0 2139   0.732   2.586   3.218
   94I3C     I0 2140   1.594   2.894  -0.516
   94I3C     I1 2141   1.894   2.412  -0.723
   94I3C     I2 2142   2.029   2.963  -0.931
   94I3C     C0 2143   1.853   2.618  -0.731
   94I3C     C1 2144   1.815   2.894  -0.724
   94I3C     C2 2145   1.934   2.701  -0.809
   94I3C     C3 2146   1.747   2.670  -0.655
   94I3C     C4 2147   1.914   2.839  -0.807
   94I3C     C5 2148   1.733   2.810  -0.649
   94I3C     C6 2149   2.042   2.639  -0.895
   94I3C     C7 2150   1.799   3.043  -0.715
   94I3C     O0 2151   1.995   2.596  -1.008
   94I3C     O1 2152   1.708   3.102  -0.769
   94I3C     O2 2153   2.157   2.632  -0.859
   94I3C     O3 2154   1.891   3.099  -0.641
   94I3C     O4 2155   1.890   1.769  -0.625
   94I3C     H0 2156   2.051   2.548  -1.044
   94I3C     H1 2157   1.875   3.179  -0.635
   94I3C     H2 2158   1.676   2.500  -0.582
   94I3C     H3 2159   1.598   2.619  -0.535
   94I3C     H4 2160   1.947   1.776  -0.562
   94I3C     H5 2161   1.927   1.795  -0.698
   94I3C     N0 2162   1.663   2.586  -0.581
   95I3C     I0 2163   1.594   2.894   1.383
   95I3C     I1 2164   1.894   2.412   1.176
   95I3C     I2 2165   2.029   2.963   0.968
   95I3C     C0 2166   1.853   2.618   1.168
   95I3C     C1 2167   1.815   2.894   1.175
   95I3C     C2 2168   1.934   2.701   1.090
   95I3C     C3 2169   1.747   2.670   1.245
   95I3C     C4 2170   1.914   2.839   1.092
   95I3C     C5 2171   1.733   2.810   1.250
   95I3C     C6 2172   2.042   2.639   1.004
   95I3C     C7 2173   1.799   3.043   1.184
   95I3C     O0 2174   1.995   2.596   0.891
   95I3C     O1 2175   1.708   3.102   1.130
   95I3C     O2 2176   2.157   2.632   1.040
   95I3C     O3 2177   1.891   3.099   1.258
   95I3C     O4 2178   1.890   1.769   1.274
   95I3C     H0 2179   2.051   2.548   0.855
   95I3C     H1 2180   1.875   3.179   1.265
   95I3C     H2 2181   1.676   2.500   1.317
   95I3C     H3 2182   1.598   2.619   1.365
   95I3C     H4 2183   1.947   1.776   1.337
   95I3C     H5 2184   1.927   1.795   1.202
   95I3C     N0 2185   1.663   2.586   1.318
   96I3C     I0 2186   1.594   2.894   3.283
   96I3C     I1 2187   1.894   2.412   3.075
   96I3C     I2 2188   2.029   2.963   2.867
   96I3C     C0 2189   1.853   2.618   3.067
   96I3C     C1 2190   1.815   2.894   3.074
   96I3C     C2 2191   1.934   2.701   2.989
   96I3C     C3 2192   1.747   2.670   3.144
   96I3C     C4 2193   1.914   2.839   2.991
   96I3C     C5 2194   1.733   2.810   3.150
   96I3C     C6 2195   2.042   2.639   2.904
   96I3C     C7 2196   1.799   3.043   3.084
   96I3C     O0 2197   1.995   2.596   2.790
   96I3C     O1 2198   1.708   3.102   3.030
   96I3C     O2 2199   2.157   2.632   2.939
   96I3C     O3 2200   1.891   3.099   3.158
   96I3C     O4 2201   1.890   1.769   3.173
   96I3C     H0 2202   2.051   2.548   2.754
   96I3C     H1 2203   1.875   3.179   3.164
   96I3C     H2 2204   1.676   2.500   3.217
   96I3C     H3 2205   1.598   2.619   3.264
   96I3C     H4 2206   1.947   1.776   3.237
   96I3C     H5 2207   1.927   1.795   3.101
   96I3C     N0 2208   1.663   2.586   3.218
   97I3C     I0 2209   2.525   2.894  -0.516
   97I3C     I1 2210   2.825   2.412  -0.723
   97I3C     I2 2211   2.959   2.963  -0.931
   97I3C     C0 2212   2.783   2.618  -0.731
   97I3C     C1 2213   2.746   2.894  -0.724
   97I3C     C2 2214   2.864   2.701  -0.809
   97I3C     C3 2215   2.677   2.670  -0.655
   97I3C     C4 2216   2.845   2.839  -0.807
   97I3C     C5 2217   2.664   2.810  -0.649
   97I3C     C6 2218   2.972   2.639  -0.895
   97I3C     C7 2219   2.729   3.043  -0.715
   97I3C     O0 2220   2.925   2.596  -1.008
   97I3C     O1 2221   2.638   3.102  -0.769
   97I3C     O2 2222   3.087   2.632  -0.859
   97I3C     O3 2223   2.821   3.099  -0.641
   97I3C     O4 2224   2.821   1.769  -0.625
   97I3C     H0 2225   2.982   2.548  -1.044
   97I3C     H1 2226   2.806   3.179  -0.635
   97I3C     H2 2227   2.606   2.500  -0.582
   97I3C     H3 2228   2.529   2.619  -0.535
   97I3C     H4 2229   2.878   1.776  -0.562
   97I3C     H5 2230   2.857   1.795  -0.698
   97I3C     N0 2231   2.593   2.586  -0.581
   98I3C     I0 2232   2.525   2.894   1.383
   98I3C     I1 2233   2.825   2.412   1.176
   98I3C     I2 2234   2.959   2.963   0.968
   98I3C     C0 2235   2.783   2.618   1.168
   98I3C     C1 2236   2.746   2.894   1.175
   98I3C     C2 2237   2.864   2.701   1.090
   98I3C     C3 2238   2.677   2.670   1.245
   98I3C     C4 2239   2.845   2.839   1.092
   98I3C     C5 2240   2.664   2.810   1.250
   98I3C     C6 2241   2.972   2.639   1.004
   98I3C     C7 2242   2.729   3.043   1.184
   98I3C     O0 2243   2.925   2.596   0.891
   98I3C     O1 2244   2.638   3.102   1.130
   98I3C     O2 2245   3.087   2.632   1.040
   98I3C     O3 2246   2.821   3.099   1.258
   98I3C     O4 2247   2.821   1.769   1.274
   98I3C     H0 2248   2.982   2.548   0.855
   98I3C     H1 2249   2.806   3.179   1.265
   98I3C     H2 2250   2.606   2.500   1.317
   98I3C     H3 2251   2.529   2.619   1.365
   98I3C     H4 2252   2.878   1.776   1.337
   98I3C     H5 2253   2.857   1.795   1.202
   98I3C     N0 2254   2.593   2.586   1.318
   99I3C     I0 2255   2.525   2.894   3.283
   99I3C     I1 2256   2.825   2.412   3.075
   99I3C     I2 2257   2.959   2.963   2.867
   99I3C     C0 2258   2.783   2.618   3.067
   99I3C     C1 2259   2.746   2.894   3.074
   99I3C     C2 2260   2.864   2.701   2.989
   99I3C     C3 2261   2.677   2.670   3.144
   99I3C     C4 2262   2.845   2.839   2.991
   99I3C     C5 2263   2.664   2.810   3.150
   99I3C     C6 2264   2.972   2.639   2.904
   99I3C     C7 2265   2.729   3.043   3.084
   99I3C     O0 2266   2.925   2.596   2.790
   99I3C     O1 2267   2.638   3.102   3.030
   99I3C     O2 2268   3.087   2.632   2.939
   99I3C     O3 2269   2.821   3.099   3.158
   99I3C     O4 2270   2.821   1.769   3.173
   99I3C     H0 2271   2.982   2.548   2.754
   99I3C     H1 2272   2.806   3.179   3.164
   99I3C     H2 2273   2.606   2.500   3.217
   99I3C     H3 2274   2.529   2.619   3.264
   99I3C     H4 2275   2.878   1.776   3.237
   99I3C     H5 2276   2.857   1.795   3.101
   99I3C     N0 2277   2.593   2.586   3.218
  100I3C     I0 2278   0.664   4.481  -0.516
  100I3C     I1 2279   0.964   3.999  -0.723
  100I3C     I2 2280   1.098   4.549  -0.931
  100I3C     C0 2281   0.922   4.204  -0.731
  100I3C     C1 2282   0.885   4.480  -0.724
  100I3C     C2 2283   1.003   4.287  -0.809
  100I3C     C3 2284   0.816   4.256  -0.655
  100I3C     C4 2285   0.984   4.425  -0.807
  100I3C     C5 2286   0.803   4.396  -0.649
  100I3C     C6 2287   1.111   4.225  -0.895
  100I3C     C7 2288   0.868   4.629  -0.715
  100I3C     O0 2289   1.065   4.182  -1.008
  100I3C     O1 2290   0.777   4.688  -0.769
  100I3C     O2 2291   1.227   4.218  -0.859
  100I3C     O3 2292   0.960   4.685  -0.641
  100I3C     O4 2293   0.960   3.355  -0.625
  100I3C     H0 2294   1.121   4.134  -1.044
  100I3C     H1 2295   0.945   4.766  -0.635
  100I3C     H2 2296   0.745   4.087  -0.582
  100I3C     H3 2297   0.668   4.205  -0.535
  100I3C     H4 2298   1.017   3.362  -0.562
  100I3C     H5 2299   0.996   3.381  -0.698
  100I3C     N0 2300   0.732   4.172  -0.581
  101I3C     I0 2301   0.664   4.481   1.383
  101I3C     I1 2302   0.964   3.999   1.176
  101I3C     I2 2303   1.098   4.549   0.968
  101I3C     C0 2304   0.922   4.204   1.168
  101I3C     C1 2305   0.885   4.480   1.175
  101I3C     C2 2306   1.003   4.287   1.090
  101I3C     C3 2307   0.816   4.256   1.245
  101I3C     C4 2308   0.984   4.425   1.092
  101I3C     C5 2309   0.803   4.396   1.250
  101I3C     C6 2310   1.111   4.225   1.004
  101I3C     C7 2311   0.868   4.629   1.184
  101I3C     O0 2312   1.065   4.182   0.891
  101I3C     O1 2313   0.777   4.688   1.130
  101I3C     O2 2314   1.227   4.218   1.040
  101I3C     O3 2315   0.960   4.685   1.258
  101I3C     O4 2316   0.960   3.355   1.274
  101I3C     H0 2317   1.121   4.134   0.855
  101I3C     H1 2318   0.945   4.766   1.265
  101I3C     H2 2319   0.745   4.087   1.317
  101I3C     H3 2320   0.668   4.205   1.365
  101I3C     H4 2321   1.017   3.362   1.337
  101I3C     H5 2322   0.996   3.381   1.202
  101I3C     N0 2323   0.732   4.172   1.318
  102I3C     I0 2324   0.664   4.481   3.283
  102I3C     I1 2325   0.964   3.999   3.075
  102I3C     I2 2326   1.098   4.549   2.867
  102I3C     C0 2327   0.922   4.204   3.067
  102I3C     C1 2328   0.885   4.480   3.074
  102I3C     C2 2329   1.003   4.287   2.989
  102I3C     C3 2330   0.816   4.256   3.144
  102I3C     C4 2331   0.984   4.425   2.991
  102I3C     C5 2332   0.803   4.396   3.150
  102I3C     C6 2333   1.111   4.225   2.904
  102I3C     C7 2334   0.868   4.629   3.084
  102I3C     O0 2335   1.065   4.182   2.790
  102I3C     O1 2336   0.777   4.688   3.030
  102I3C     O2 2337   1.227   4.218   2.939
  102I3C     O3 2338   0.960   4.685   3.158
  102I3C     O4 2339   0.960   3.355   3.173
  102I3C     H0 2340   1.121   4.134   2.754
  102I3C     H1 2341   0.945   4.766   3.164
  102I3C     H2 2342   0.745   4.087   3.217
  102I3C     H3 2343   0.668   4.205   3.264
  102I3C     H4 2344   1.017   3.362   3.237
  102I3C     H5 2345   0.996   3.381   3.101
  102I3C     N0 2346   0.732   4.172   3.218
  103I3C     I0 2347   1.594   4.481  -0.516
  103I3C     I1 2348   1.894   3.999  -0.723
  103I3C     I2 2349   2.029   4.549  -0.931
  103I3C     C0 2350   1.853   4.204  -0.731
  103I3C     C1 2351   1.815   4.480  -0.724
  103I3C     C2 2352   1.934   4.287  -0.809
  103I3C     C3 2353   1.747   4.256  -0.655
  103I3C     C4 2354   1.914   4.425  -0.807
  103I3C     C5 2355   1.733   4.396  -0.649
  103I3C     C6 2356   2.042   4.225  -0.895
  103I3C     C7 2357   1.799   4.629  -0.715
  103I3C     O0 2358   1.995   4.182  -1.008
  103I3C     O1 2359   1.708   4.688  -0.769
  103I3C     O2 2360   2.157   4.218  -0.859
  103I3C     O3 2361   1.891   4.685  -0.641
  103I3C     O4 2362   1.890   3.355  -0.625
  103I3C     H0 2363   2.051   4.134  -1.044
  103I3C     H1 2364   1.875   4.766  -0.635
  103I3C     H2 2365   1.676   4.087  -0.582
  103I3C     H3 2366   1.598   4.205  -0.535
  103I3C     H4 2367   1.947   3.362  -0.562
  103I3C     H5 2368   1.927   3.381  -0.698
  103I3C     N0 2369   1.663   4.172  -0.581
  104I3C     I0 2370   1.594   4.481   1.383
  104I3C     I1 2371   1.894   3.999   1.176
  104I3C     I2 2372   2.029   4.549   0.968
  104I3C     C0 2373   1.853   4.204   1.168
  104I3C     C1 2374   1.815   4.480   1.175
  104I3C     C2 2375   1.934   4.287   1.090
  104I3C     C3 2376   1.747   4.256   1.245
  104I3C     C4 2377   1.914   4.425   1.092
  104I3C     C5 2378   1.733   4.396   1.250
  104I3C     C6 2379   2.042   4.225   1.004
  104I3C     C7 2380   1.799   4.629   1.184
  104I3C     O0 2381   1.995   4.182   0.891
  104I3C     O1 2382   1.708   4.688   1.130
  104I3C     O2 2383   2.157   4.218   1.040
  104I3C     O3 2384   1.891   4.685   1.258
  104I3C     O4 2385   1.890   3.355   1.274
  104I3C     H0 2386   2.051   4.134   0.855
  104I3C     H1 2387   1.875   4.766   1.265
  104I3C     H2 2388   1.676   4.087   1.317
  104I3C     H3 2389   1.598   4.205   1.365
  104I3C     H4 2390   1.947   3.362   1.337
  104I3C     H5 2391   1.927   3.381   1.202
  104I3C     N0 2392   1.663   4.172   1.318
  105I3C     I0 2393   1.594   4.481   3.283
  105I3C     I1 2394   1.894   3.999   3.075
  105I3C     I2 2395   2.029   4.549   2.867
  105I3C     C0 2396   1.853   4.204   3.067
  105I3C     C1 2397   1.815   4.480   3.074
  105I3C     C2 2398   1.934   4.287   2.989
  105I3C     C3 2399   1.747   4.256   3.144
  105I3C     C4 2400   1.914   4.425   2.991
  105I3C     C5 2401   1.733   4.396   3.150
  105I3C     C6 2402   2.042   4.225   2.904
  105I3C     C7 2403   1.799   4.629   3.084
  105I3C     O0 2404   1.995   4.182   2.790
  105I3C     O1 2405   1.708   4.688   3.030
  105I3C     O2 2406   2.157   4.218   2.939
  105I3C     O3 2407   1.891   4.685   3.158
  105I3C     O4 2408   1.890   3.355   3.173
  105I3C     H0 2409   2.051   4.134   2.754
  105I3C     H1 2410   1.875   4.766   3.164
  105I3C     H2 2411   1.676   4.087   3.217
  105I3C     H3 2412   1.598   4.205   3.264
  105I3C     H4 2413   1.947   3.362   3.237
  105I3C     H5 2414   1.927   3.381   3.101
  105I3C     N0 2415   1.663   4.172   3.218
  106I3C     I0 2416   2.525   4.481  -0.516
  106I3C     I1 2417   2.825   3.999  -0.723
  106I3C     I2 2418   2.959   4.549  -0.931
  106I3C     C0 2419   2.783   4.204  -0.731
  106I3C     C1 2420   2.746   4.480  -0.724
  106I3C     C2 2421   2.864   4.287  -0.809
  106I3C     C3 2422   2.677   4.256  -0.655
  106I3C     C4 2423   2.845   4.425  -0.807
  106I3C     C5 2424   2.664   4.396  -0.649
  106I3C     C6 2425   2.972   4.225  -0.895
  106I3C     C7 2426   2.729   4.629  -0.715
  106I3C     O0 2427   2.925   4.182  -1.008
  106I3C     O1 2428   2.638   4.688  -0.769
  106I3C     O2 2429   3.087   4.218  -0.859
  106I3C     O3 2430   2.821   4.685  -0.641
  106I3C     O4 2431   2.821   3.355  -0.625
  106I3C     H0 2432   2.982   4.134  -1.044
  106I3C     H1 2433   2.806   4.766  -0.635
  106I3C     H2 2434   2.606   4.087  -0.582
  106I3C     H3 2435   2.529   4.205  -0.535
  106I3C     H4 2436   2.878   3.362  -0.562
  106I3C     H5 2437   2.857   3.381  -0.698
  106I3C     N0 2438   2.593   4.172  -0.581
  107I3C     I0 2439   2.525   4.481   1.383
  107I3C     I1 2440   2.825   3.999   1.176
  107I3C     I2 2441   2.959   4.549   0.968
  107I3C     C0 2442   2.783   4.204   1.168
  107I3C     C1 2443   2.746   4.480   1.175
  107I3C     C2 2444   2.864   4.287   1.090
  107I3C     C3 2445   2.677   4.256   1.245
  107I3C     C4 2446   2.845   4.425   1.092
  107I3C     C5 2447   2.664   4.396   1.250
  107I3C     C6 2448   2.972   4.225   1.004
  107I3C     C7 2449   2.729   4.629   1.184
  107I3C     O0 2450   2.925   4.182   0.891
  107I3C     O1 2451   2.638   4.688   1.130
  107I3C     O2 2452   3.087   4.218   1.040
  107I3C     O3 2453   2.821   4.685   1.258
  107I3C     O4 2454   2.821   3.355   1.274
  107I3C     H0 2455   2.982   4.134   0.855
  107I3C     H1 2456   2.806   4.766   1.265
  107I3C     H2 2457   2.606   4.087   1.317
  107I3C     H3 2458   2.529   4.205   1.365
  107I3C     H4 2459   2.878   3.362   1.337
  107I3C     H5 2460   2.857   3.381   1.202
  107I3C     N0 2461   2.593   4.172   1.318
  108I3C     I0 2462   2.525   4.481   3.283
  108I3C     I1 2463   2.825   3.999   3.075
  108I3C     I2 2464   2.959   4.549   2.867
  108I3C     C0 2465   2.783   4.204   3.067
  108I3C     C1 2466   2.746   4.480   3.074
  108I3C     C2 2467   2.864   4.287   2.989
  108I3C     C3 2468   2.677   4.256   3.144
  108I3C     C4 2469   2.845   4.425   2.991
  108I3C     C5 2470   2.664   4.396   3.150
  108I3C     C6 2471   2.972   4.225   2.904
  108I3C     C7 2472   2.729   4.629   3.084
  108I3C     O0 2473   2.925   4.182   2.790
  108I3C     O1 2474   2.638   4.688   3.030
  108I3C     O2 2475   3.087   4.218   2.939
  108I3C     O3 2476   2.821   4.685   3.158
  108I3C     O4 2477   2.821   3.355   3.173
  108I3C     H0 2478   2.982   4.134   2.754
  108I3C     H1 2479   2.806   4.766   3.164
  108I3C     H2 2480   2.606   4.087   3.217
  108I3C     H3 2481   2.529   4.205   3.264
  108I3C     H4 2482   2.878   3.362   3.237
  108I3C     H5 2483   2.857   3.381   3.101
  108I3C     N0 2484   2.593   4.172   3.218
  109I3C     I0 2485  -0.203  -1.308  -1.457
  109I3C     I1 2486  -0.503  -0.826  -1.664
  109I3C     I2 2487  -0.638  -1.377  -1.872
  109I3C     C0 2488  -0.462  -1.032  -1.672
  109I3C     C1 2489  -0.424  -1.308  -1.665
  109I3C     C2 2490  -0.542  -1.115  -1.750
  109I3C     C3 2491  -0.356  -1.083  -1.595
  109I3C     C4 2492  -0.523  -1.252  -1.748
  109I3C     C5 2493  -0.342  -1.224  -1.589
  109I3C     C6 2494  -0.650  -1.053  -1.836
  109I3C     C7 2495  -0.408  -1.457  -1.656
  109I3C     O0 2496  -0.604  -1.010  -1.949
  109I3C     O1 2497  -0.317  -1.516  -1.710
  109I3C     O2 2498  -0.766  -1.045  -1.800
  109I3C     O3 2499  -0.500  -1.513  -1.582
  109I3C     O4 2500  -0.499  -0.183  -1.566
  109I3C     H0 2501  -0.660  -0.962  -1.985
  109I3C     H1 2502  -0.484  -1.593  -1.575
  109I3C     H2 2503  -0.284  -0.914  -1.523
  109I3C     H3 2504  -0.207  -1.033  -1.475
  109I3C     H4 2505  -0.556  -0.189  -1.503
  109I3C     H5 2506  -0.535  -0.209  -1.638
  109I3C     N0 2507  -0.272  -0.999  -1.522
  110I3C     I0 2508  -0.203  -1.308   0.442
  110I3C     I1 2509  -0.503  -0.826   0.235
  110I3C     I2 2510  -0.638  -1.377   0.027
  110I3C     C0 2511  -0.462  -1.032   0.227
  110I3C     C1 2512  -0.424  -1.308   0.234
  110I3C     C2 2513  -0.542  -1.115   0.149
  110I3C     C3 2514  -0.356  -1.083   0.304
  110I3C     C4 2515  -0.523  -1.252   0.151
  110I3C     C5 2516  -0.342  -1.224   0.310
  110I3C     C6 2517  -0.650  -1.053   0.064
  110I3C     C7 2518  -0.408  -1.457   0.244
  110I3C     O0 2519  -0.604  -1.010  -0.050
  110I3C     O1 2520  -0.317  -1.516   0.190
  110I3C     O2 2521  -0.766  -1.045   0.099
  110I3C     O3 2522  -0.500  -1.513   0.317
  110I3C     O4 2523  -0.499  -0.183   0.333
  110I3C     H0 2524  -0.660  -0.962  -0.086
  110I3C     H1 2525  -0.484  -1.593   0.324
  110I3C     H2 2526  -0.284  -0.914   0.377
  110I3C     H3 2527  -0.207  -1.033   0.424
  110I3C     H4 2528  -0.556  -0.189   0.396
  110I3C     H5 2529  -0.535  -0.209   0.261
  110I3C     N0 2530  -0.272  -0.999   0.377
  111I3C     I0 2531  -0.203  -1.308   2.342
  111I3C     I1 2532  -0.503  -0.826   2.134
  111I3C     I2 2533  -0.638  -1.377   1.927
  111I3C     C0 2534  -0.462  -1.032   2.127
  111I3C     C1 2535  -0.424  -1.308   2.133
  111I3C     C2 2536  -0.542  -1.115   2.049
  111I3C     C3 2537  -0.356  -1.083   2.203
  111I3C     C4 2538  -0.523  -1.252   2.050
  111I3C     C5 2539  -0.342  -1.224   2.209
  111I3C     C6 2540  -0.650  -1.053   1.963
  111I3C     C7 2541  -0.408  -1.457   2.143
  111I3C     O0 2542  -0.604  -1.010   1.849
  111I3C     O1 2543  -0.317  -1.516   2.089
  111I3C     O2 2544  -0.766  -1.045   1.998
  111I3C     O3 2545  -0.500  -1.513   2.217
  111I3C     O4 2546  -0.499  -0.183   2.233
  111I3C     H0 2547  -0.660  -0.962   1.813
  111I3C     H1 2548  -0.484  -1.593   2.223
  111I3C     H2 2549  -0.284  -0.914   2.276
  111I3C     H3 2550  -0.207  -1.033   2.323
  111I3C     H4 2551  -0.556  -0.189   2.296
  111I3C     H5 2552  -0.535  -0.209   2.160
  111I3C     N0 2553  -0.272  -0.999   2.277
  112I3C     I0 2554   0.727  -1.308  -1.457
  112I3C     I1 2555   0.428  -0.826  -1.664
  112I3C     I2 2556   0.293  -1.377  -1.872
  112I3C     C0 2557   0.469  -1.032  -1.672
  112I3C     C1 2558   0.506  -1.308  -1.665
  112I3C     C2 2559   0.388  -1.115  -1.750
  112I3C     C3 2560   0.575  -1.083  -1.595
  112I3C     C4 2561   0.407  -1.252  -1.748
  112I3C     C5 2562   0.588  -1.224  -1.589
  112I3C     C6 2563   0.280  -1.053  -1.836
  112I3C     C7 2564   0.523  -1.457  -1.656
  112I3C     O0 2565   0.326  -1.010  -1.949
  112I3C     O1 2566   0.614  -1.516  -1.710
  112I3C     O2 2567   0.165  -1.045  -1.800
  112I3C     O3 2568   0.431  -1.513  -1.582
  112I3C     O4 2569   0.431  -0.183  -1.566
  112I3C     H0 2570   0.270  -0.962  -1.985
  112I3C     H1 2571   0.446  -1.593  -1.575
  112I3C     H2 2572   0.646  -0.914  -1.523
  112I3C     H3 2573   0.723  -1.033  -1.475
  112I3C     H4 2574   0.374  -0.189  -1.503
  112I3C     H5 2575   0.395  -0.209  -1.638
  112I3C     N0 2576   0.659  -0.999  -1.522
  113I3C     I0 2577   0.727  -1.308   0.442
  113I3C     I1 2578   0.428  -0.826   0.235
  113I3C     I2 2579   0.293  -1.377   0.027
  113I3C     C0 2580   0.469  -1.032   0.227
  113I3C     C1 2581   0.506  -1.308   0.234
  113I3C     C2 2582   0.388  -1.115   0.149
  113I3C     C3 2583   0.575  -1.083   0.304
  113I3C     C4 2584   0.407  -1.252   0.151
  113I3C     C5 2585   0.588  -1.224   0.310
  113I3C     C6 2586   0.280  -1.053   0.064
  113I3C     C7 2587   0.523  -1.457   0.244
  113I3C     O0 2588   0.326  -1.010  -0.050
  113I3C     O1 2589   0.614  -1.516   0.190
  113I3C     O2 2590   0.165  -1.045   0.099
  113I3C     O3 2591   0.431  -1.513   0.317
  113I3C     O4 2592   0.431  -0.183   0.333
  113I3C     H0 2593   0.270  -0.962  -0.086
  113I3C     H1 2594   0.446  -1.593   0.324
  113I3C     H2 2595   0.646  -0.914   0.377
  113I3C     H3 2596   0.723  -1.033   0.424
  113I3C     H4 2597   0.374  -0.189   0.396
  113I3C     H5 2598   0.395  -0.209   0.261
  113I3C     N0 2599   0.659  -0.999   0.377
  114I3C     I0 2600   0.727  -1.308   2.342
  114I3C     I1 2601   0.428  -0.826   2.134
  114I3C     I2 2602   0.293  -1.377   1.927
  114I3C     C0 2603   0.469  -1.032   2.127
  114I3C     C1 2604   0.506  -1.308   2.133
  114I3C     C2 2605   0.388  -1.115   2.049
  114I3C     C3 2606   0.575  -1.083   2.203
  114I3C     C4 2607   0.407  -1.252   2.050
  114I3C     C5 2608   0.588  -1.224   2.209
  114I3C     C6 2609   0.280  -1.053   1.963
  114I3C     C7 2610   0.523  -1.457   2.143
  114I3C     O0 2611   0.326  -1.010   1.849
  114I3C     O1 2612   0.614  -1.516   2.089
  114I3C     O2 2613   0.165  -1.045   1.998
  114I3C     O3 2614   0.431  -1.513   2.217
  114I3C     O4 2615   0.431  -0.183   2.233
  114I3C     H0 2616   0.270  -0.962   1.813
  114I3C     H1 2617   0.446  -1.593   2.223
  114I3C     H2 2618   0.646  -0.914   2.276
  114I3C     H3 2619   0.723  -1.033   2.323
  114I3C     H4 2620   0.374  -0.189   2.296
  114I3C     H5 2621   0.395  -0.209   2.160
  114I3C     N0 2622   0.659  -0.999   2.277
  115I3C     I0 2623   1.658  -1.308  -1.457
  115I3C     I1 2624   1.358  -0.826  -1.664
  115I3C     I2 2625   1.223  -1.377  -1.872
  115I3C     C0 2626   1.399  -1.032  -1.672
  115I3C     C1 2627   1.437  -1.308  -1.665
  115I3C     C2 2628   1.319  -1.115  -1.750
  115I3C     C3 2629   1.505  -1.083  -1.595
  115I3C     C4 2630   1.338  -1.252  -1.748
  115I3C     C5 2631   1.519  -1.224  -1.589
  115I3C     C6 2632   1.211  -1.053  -1.836
  115I3C     C7 2633   1.453  -1.457  -1.656
  115I3C     O0 2634   1.257  -1.010  -1.949
  115I3C     O1 2635   1.544  -1.516  -1.710
  115I3C     O2 2636   1.095  -1.045  -1.800
  115I3C     O3 2637   1.361  -1.513  -1.582
  115I3C     O4 2638   1.362  -0.183  -1.566
  115I3C     H0 2639   1.201  -0.962  -1.985
  115I3C     H1 2640   1.377  -1.593  -1.575
  115I3C     H2 2641   1.577  -0.914  -1.523
  115I3C     H3 2642   1.654  -1.033  -1.475
  115I3C     H4 2643   1.305  -0.189  -1.503
  115I3C     H5 2644   1.325  -0.209  -1.638
  115I3C     N0 2645   1.589  -0.999  -1.522
  116I3C     I0 2646   1.658  -1.308   0.442
  116I3C     I1 2647   1.358  -0.826   0.235
  116I3C     I2 2648   1.223  -1.377   0.027
  116I3C     C0 2649   1.399  -1.032   0.227
  116I3C     C1 2650   1.437  -1.308   0.234
  116I3C     C2 2651   1.319  -1.115   0.149
  116I3C     C3 2652   1.505  -1.083   0.304
  116I3C     C4 2653   1.338  -1.252   0.151
  116I3C     C5 2654   1.519  -1.224   0.310
  116I3C     C6 2655   1.211  -1.053   0.064
  116I3C     C7 2656   1.453  -1.457   0.244
  116I3C     O0 2657   1.257  -1.010  -0.050
  116I3C     O1 2658   1.544  -1.516   0.190
  116I3C     O2 2659   1.095  -1.045   0.099
  116I3C     O3 2660   1.361  -1.513   0.317
  116I3C     O4 2661   1.362  -0.183   0.333
  116I3C     H0 2662   1.201  -0.962  -0.086
  116I3C     H1 2663   1.377  -1.593   0.324
  116I3C     H2 2664   1.577  -0.914   0.377
  116I3C     H3 2665   1.654  -1.033   0.424
  116I3C     H4 2666   1.305  -0.189   0.396
  116I3C     H5 2667   1.325  -0.209   0.261
  116I3C     N0 2668   1.589  -0.999   0.377
  117I3C     I0 2669   1.658  -1.308   2.342
  117I3C     I1 2670   1.358  -0.826   2.134
  117I3C     I2 2671   1.223  -1.377   1.927
  117I3C     C0 2672   1.399  -1.032   2.127
  117I3C     C1 2673   1.437  -1.308   2.133
  117I3C     C2 2674   1.319  -1.115   2.049
  117I3C     C3 2675   1.505  -1.083   2.203
  117I3C     C4 2676   1.338  -1.252   2.050
  117I3C     C5 2677   1.519  -1.224   2.209
  117I3C     C6 2678   1.211  -1.053   1.963
  117I3C     C7 2679   1.453  -1.457   2.143
  117I3C     O0 2680   1.257  -1.010   1.849
  117I3C     O1 2681   1.544  -1.516   2.089
  117I3C     O2 2682   1.095  -1.045   1.998
  117I3C     O3 2683   1.361  -1.513   2.217
  117I3C     O4 2684   1.362  -0.183   2.233
  117I3C     H0 2685   1.201  -0.962   1.813
  117I3C     H1 2686   1.377  -1.593   2.223
  117I3C     H2 2687   1.577  -0.914   2.276
  117I3C     H3 2688   1.654  -1.033   2.323
  117I3C     H4 2689   1.305  -0.189   2.296
  117I3C     H5 2690   1.325  -0.209   2.160
  117I3C     N0 2691   1.589  -0.999   2.277
  118I3C     I0 2692  -0.203   0.278  -1.457
  118I3C     I1 2693  -0.503   0.760  -1.664
  118I3C     I2 2694  -0.638   0.209  -1.872
  118I3C     C0 2695  -0.462   0.554  -1.672
  118I3C     C1 2696  -0.424   0.279  -1.665
  118I3C     C2 2697  -0.542   0.471  -1.750
  118I3C     C3 2698  -0.356   0.503  -1.595
  118I3C     C4 2699  -0.523   0.334  -1.748
  118I3C     C5 2700  -0.342   0.363  -1.589
  118I3C     C6 2701  -0.650   0.534  -1.836
  118I3C     C7 2702  -0.408   0.129  -1.656
  118I3C     O0 2703  -0.604   0.577  -1.949
  118I3C     O1 2704  -0.317   0.070  -1.710
  118I3C     O2 2705  -0.766   0.541  -1.800
  118I3C     O3 2706  -0.500   0.073  -1.582
  118I3C     O4 2707  -0.499   1.404  -1.566
  118I3C     H0 2708  -0.660   0.624  -1.985
  118I3C     H1 2709  -0.484  -0.007  -1.575
  118I3C     H2 2710  -0.284   0.672  -1.523
  118I3C     H3 2711  -0.207   0.553  -1.475
  118I3C     H4 2712  -0.556   1.397  -1.503
  118I3C     H5 2713  -0.535   1.378  -1.638
  118I3C     N0 2714  -0.272   0.587  -1.522
  119I3C     I0 2715  -0.203   0.278   0.442
  119I3C     I1 2716  -0.503   0.760   0.235
  119I3C     I2 2717  -0.638   0.209   0.027
  119I3C     C0 2718  -0.462   0.554   0.227
  119I3C     C1 2719  -0.424   0.279   0.234
  119I3C     C2 2720  -0.542   0.471   0.149
  119I3C     C3 2721  -0.356   0.503   0.304
  119I3C     C4 2722  -0.523   0.334   0.151
  119I3C     C5 2723  -0.342   0.363   0.310
  119I3C     C6 2724  -0.650   0.534   0.064
  119I3C     C7 2725  -0.408   0.129   0.244
  119I3C     O0 2726  -0.604   0.577  -0.050
  119I3C     O1 2727  -0.317   0.070   0.190
  119I3C     O2 2728  -0.766   0.541   0.099
  119I3C     O3 2729  -0.500   0.073   0.317
  119I3C     O4 2730  -0.499   1.404   0.333
  119I3C     H0 2731  -0.660   0.624  -0.086
  119I3C     H1 2732  -0.484  -0.007   0.324
  119I3C     H2 2733  -0.284   0.672   0.377
  119I3C     H3 2734  -0.207   0.553   0.424
  119I3C     H4 2735  -0.556   1.397   0.396
  119I3C     H5 2736  -0.535   1.378   0.261
  119I3C     N0 2737  -0.272   0.587   0.377
  120I3C     I0 2738  -0.203   0.278   2.342
  120I3C     I1 2739  -0.503   0.760   2.134
  120I3C     I2 2740  -0.638   0.209   1.927
  120I3C     C0 2741  -0.462   0.554   2.127
  120I3C     C1 2742  -0.424   0.279   2.133
  120I3C     C2 2743  -0.542   0.471   2.049
  120I3C     C3 2744  -0.356   0.503   2.203
  120I3C     C4 2745  -0.523   0.334   2.050
  120I3C     C5 2746  -0.342   0.363   2.209
  120I3C     C6 2747  -0.650   0.534   1.963
  120I3C     C7 2748  -0.408   0.129   2.143
  120I3C     O0 2749  -0.604   0.577   1.849
  120I3C     O1 2750  -0.317   0.070   2.089
  120I3C     O2 2751  -0.766   0.541   1.998
  120I3C     O3 2752  -0.500   0.073   2.217
  120I3C     O4 2753  -0.499   1.404   2.233
  120I3C     H0 2754  -0.660   0.624   1.813
  120I3C     H1 2755  -0.484  -0.007   2.223
  120I3C     H2 2756  -0.284   0.672   2.276
  120I3C     H3 2757  -0.207   0.553   2.323
  120I3C     H4 2758  -0.556   1.397   2.296
  120I3C     H5 2759  -0.535   1.378   2.160
  120I3C     N0 2760  -0.272   0.587   2.277
  121I3C     I0 2761   0.727   0.278  -1.457
  121I3C     I1 2762   0.428   0.760  -1.664
  121I3C     I2 2763   0.293   0.209  -1.872
  121I3C     C0 2764   0.469   0.554  -1.672
  121I3C     C1 2765   0.506   0.279  -1.665
  121I3C     C2 2766   0.388   0.471  -1.750
  121I3C     C3 2767   0.575   0.503  -1.595
  121I3C     C4 2768   0.407   0.334  -1.748
  121I3C     C5 2769   0.588   0.363  -1.589
  121I3C     C6 2770   0.280   0.534  -1.836
  121I3C     C7 2771   0.523   0.129  -1.656
  121I3C     O0 2772   0.326   0.577  -1.949
  121I3C     O1 2773   0.614   0.070  -1.710
  121I3C     O2 2774   0.165   0.541  -1.800
  121I3C     O3 2775   0.431   0.073  -1.582
  121I3C     O4 2776   0.431   1.404  -1.566
  121I3C     H0 2777   0.270   0.624  -1.985
  121I3C     H1 2778   0.446  -0.007  -1.575
  121I3C     H2 2779   0.646   0.672  -1.523
  121I3C     H3 2780   0.723   0.553  -1.475
  121I3C     H4 2781   0.374   1.397  -1.503
  121I3C     H5 2782   0.395   1.378  -1.638
  121I3C     N0 2783   0.659   0.587  -1.522
  122I3C     I0 2784   0.727   0.278   0.442
  122I3C     I1 2785   0.428   0.760   0.235
  122I3C     I2 2786   0.293   0.209   0.027
  122I3C     C0 2787   0.469   0.554   0.227
  122I3C     C1 2788   0.506   0.279   0.234
  122I3C     C2 2789   0.388   0.471   0.149
  122I3C     C3 2790   0.575   0.503   0.304
  122I3C     C4 2791   0.407   0.334   0.151
  122I3C     C5 2792   0.588   0.363   0.310
  122I3C     C6 2793   0.280   0.534   0.064
  122I3C     C7 2794   0.523   0.129   0.244
  122I3C     O0 2795   0.326   0.577  -0.050
  122I3C     O1 2796   0.614   0.070   0.190
  122I3C     O2 2797   0.165   0.541   0.099
  122I3C     O3 2798   0.431   0.073   0.317
  122I3C     O4 2799   0.431   1.404   0.333
  122I3C     H0 2800   0.270   0.624  -0.086
  122I3C     H1 2801   0.446  -0.007   0.324
  122I3C     H2 2802   0.646   0.672   0.377
  122I3C     H3 2803   0.723   0.553   0.424
  122I3C     H4 2804   0.374   1.397   0.396
  122I3C     H5 2805   0.395   1.378   0.261
  122I3C     N0 2806   0.659   0.587   0.377
  123I3C     I0 2807   0.727   0.278   2.342
  123I3C     I1 2808   0.428   0.760   2.134
  123I3C     I2 2809   0.293   0.209   1.927
  123I3C     C0 2810   0.469   0.554   2.127
  123I3C     C1 2811   0.506   0.279   2.133
  123I3C     C2 2812   0.388   0.471   2.049
  123I3C     C3 2813   0.575   0.503   2.203
  123I3C     C4 2814   0.407   0.334   2.050
  123I3C     C5 2815   0.588   0.363   2.209
  123I3C     C6 2816   0.280   0.534   1.963
  123I3C     C7 2817   0.523   0.129   2.143
  123I3C     O0 2818   0.326   0.577   1.849
  123I3C     O1 2819   0.614   0.070   2.089
  123I3C     O2 2820   0.165   0.541   1.998
  123I3C     O3 2821   0.431   0.073   2.217
  123I3C     O4 2822   0.431   1.404   2.233
  123I3C     H0 2823   0.270   0.624   1.813
  123I3C     H1 2824   0.446  -0.007   2.223
  123I3C     H2 2825   0.646   0.672   2.276
  123I3C     H3 2826   0.723   0.553   2.323
  123I3C     H4 2827   0.374   1.397   2.296
  123I3C     H5 2828   0.395   1.378   2.160
  123I3C     N0 2829   0.659   0.587   2.277
  124I3C     I0 2830   1.658   0.278  -1.457
  124I3C     I1 2831   1.358   0.760  -1.664
  124I3C     I2 2832   1.223   0.209  -1.872
  124I3C     C0 2833   1.399   0.554  -1.672
  124I3C     C1 2834   1.437   0.279  -1.665
  124I3C     C2 2835   1.319   0.471  -1.750
  124I3C     C3 2836   1.505   0.503  -1.595
  124I3C     C4 2837   1.338   0.334  -1.748
  124I3C     C5 2838   1.519   0.363  -1.589
  124I3C     C6 2839   1.211   0.534  -1.836
  124I3C     C7 2840   1.453   0.129  -1.656
  124I3C     O0 2841   1.257   0.577  -1.949
  124I3C     O1 2842   1.544   0.070  -1.710
  124I3C     O2 2843   1.095   0.541  -1.800
  124I3C     O3 2844   1.361   0.073  -1.582
  124I3C     O4 2845   1.362   1.404  -1.566
  124I3C     H0 2846   1.201   0.624  -1.985
  124I3C     H1 2847   1.377  -0.007  -1.575
  124I3C     H2 2848   1.577   0.672  -1.523
  124I3C     H3 2849   1.654   0.553  -1.475
  124I3C     H4 2850   1.305   1.397  -1.503
  124I3C     H5 2851   1.325   1.378  -1.638
  124I3C     N0 2852   1.589   0.587  -1.522
  125I3C     I0 2853   1.658   0.278   0.442
  125I3C     I1 2854   1.358   0.760   0.235
  125I3C     I2 2855   1.223   0.209   0.027
  125I3C     C0 2856   1.399   0.554   0.227
  125I3C     C1 2857   1.437   0.279   0.234
  125I3C     C2 2858   1.319   0.471   0.149
  125I3C     C3 2859   1.505   0.503   0.304
  125I3C     C4 2860   1.338   0.334   0.151
  125I3C     C5 2861   1.519   0.363   0.310
  125I3C     C6 2862   1.211   0.534   0.064
  125I3C     C7 2863   1.453   0.129   0.244
  125I3C     O0 2864   1.257   0.577  -0.050
  125I3C     O1 2865   1.544   0.070   0.190
  125I3C     O2 2866   1.095   0.541   0.099
  125I3C     O3 2867   1.361   0.073   0.317
  125I3C     O4 2868   1.362   1.404   0.333
  125I3C     H0 2869   1.201   0.624  -0.086
  125I3C     H1 2870   1.377  -0.007   0.324
  125I3C     H2 2871   1.577   0.672   0.377
  125I3C     H3 2872   1.654   0.553   0.424
  125I3C     H4 2873   1.305   1.397   0.396
  125I3C     H5 2874   1.325   1.378   0.261
  125I3C     N0 2875   1.589   0.587   0.377
  126I3C     I0 2876   1.658   0.278   2.342
  126I3C     I1 2877   1.358   0.760   2.134
  126I3C     I2 2878   1.223   0.209   1.927
  126I3C     C0 2879   1.399   0.554   2.127
  126I3C     C1 2880   1.437   0.279   2.133
  126I3C     C2 2881   1.319   0.471   2.049
  126I3C     C3 2882   1.505   0.503   2.203
  126I3C     C4 2883   1.338   0.334   2.050
  126I3C     C5 2884   1.519   0.363   2.209
  126I3C     C6 2885   1.211   0.534   1.963
  126I3C     C7 2886   1.453   0.129   2.143
  126I3C     O0 2887   1.257   0.577   1.849
  126I3C     O1 2888   1.544   0.070   2.089
  126I3C     O2 2889   1.095   0.541   1.998
  126I3C     O3 2890   1.361   0.073   2.217
  126I3C     O4 2891   1.362   1.404   2.233
  126I3C     H0 2892   1.201   0.624   1.813
  126I3C     H1 2893   1.377  -0.007   2.223
  126I3C     H2 2894   1.577   0.672   2.276
  126I3C     H3 2895   1.654   0.553   2.323
  126I3C     H4 2896   1.305   1.397   2.296
  126I3C     H5 2897   1.325   1.378   2.160
  126I3C     N0 2898   1.589   0.587   2.277
  127I3C     I0 2899  -0.203   1.865  -1.457
  127I3C     I1 2900  -0.503   2.346  -1.664
  127I3C     I2 2901  -0.638   1.796  -1.872
  127I3C     C0 2902  -0.462   2.141  -1.672
  127I3C     C1 2903  -0.424   1.865  -1.665
  127I3C     C2 2904  -0.542   2.058  -1.750
  127I3C     C3 2905  -0.356   2.089  -1.595
  127I3C     C4 2906  -0.523   1.920  -1.748
  127I3C     C5 2907  -0.342   1.949  -1.589
  127I3C     C6 2908  -0.650   2.120  -1.836
  127I3C     C7 2909  -0.408   1.716  -1.656
  127I3C     O0 2910  -0.604   2.163  -1.949
  127I3C     O1 2911  -0.317   1.656  -1.710
  127I3C     O2 2912  -0.766   2.127  -1.800
  127I3C     O3 2913  -0.500   1.660  -1.582
  127I3C     O4 2914  -0.499   2.990  -1.566
  127I3C     H0 2915  -0.660   2.211  -1.985
  127I3C     H1 2916  -0.484   1.579  -1.575
  127I3C     H2 2917  -0.284   2.258  -1.523
  127I3C     H3 2918  -0.207   2.140  -1.475
  127I3C     H4 2919  -0.556   2.983  -1.503
  127I3C     H5 2920  -0.535   2.964  -1.638
  127I3C     N0 2921  -0.272   2.173  -1.522
  128I3C     I0 2922  -0.203   1.865   0.442
  128I3C     I1 2923  -0.503   2.346   0.235
  128I3C     I2 2924  -0.638   1.796   0.027
  128I3C     C0 2925  -0.462   2.141   0.227
  128I3C     C1 2926  -0.424   1.865   0.234
  128I3C     C2 2927  -0.542   2.058   0.149
  128I3C     C3 2928  -0.356   2.089   0.304
  128I3C     C4 2929  -0.523   1.920   0.151
  128I3C     C5 2930  -0.342   1.949   0.310
  128I3C     C6 2931  -0.650   2.120   0.064
  128I3C     C7 2932  -0.408   1.716   0.244
  128I3C     O0 2933  -0.604   2.163  -0.050
  128I3C     O1 2934  -0.317   1.656   0.190
  128I3C     O2 2935  -0.766   2.127   0.099
  128I3C     O3 2936  -0.500   1.660   0.317
  128I3C     O4 2937  -0.499   2.990   0.333
  128I3C     H0 2938  -0.660   2.211  -0.086
  128I3C     H1 2939  -0.484   1.579   0.324
  128I3C     H2 2940  -0.284   2.258   0.377
  128I3C     H3 2941  -0.207   2.140   0.424
  128I3C     H4 2942  -0.556   2.983   0.396
  128I3C     H5 2943  -0.535   2.964   0.261
  128I3C     N0 2944  -0.272   2.173   0.377
  129I3C     I0 2945  -0.203   1.865   2.342
  129I3C     I1 2946  -0.503   2.346   2.134
  129I3C     I2 2947  -0.638   1.796   1.927
  129I3C     C0 2948  -0.462   2.141   2.127
  129I3C     C1 2949  -0.424   1.865   2.133
  129I3C     C2 2950  -0.542   2.058   2.049
  129I3C     C3 2951  -0.356   2.089   2.203
  129I3C     C4 2952  -0.523   1.920   2.050
  129I3C     C5 2953  -0.342   1.949   2.209
  129I3C     C6 2954  -0.650   2.120   1.963
  129I3C     C7 2955  -0.408   1.716   2.143
  129I3C     O0 2956  -0.604   2.163   1.849
  129I3C     O1 2957  -0.317   1.656   2.089
  129I3C     O2 2958  -0.766   2.127   1.998
  129I3C     O3 2959  -0.500   1.660   2.217
  129I3C     O4 2960  -0.499   2.990   2.233
  129I3C     H0 2961  -0.660   2.211   1.813
  129I3C     H1 2962  -0.484   1.579   2.223
  129I3C     H2 2963  -0.284   2.258   2.276
  129I3C     H3 2964  -0.207   2.140   2.323
  129I3C     H4 2965  -0.556   2.983   2.296
  129I3C     H5 2966  -0.535   2.964   2.160
  129I3C     N0 2967  -0.272   2.173   2.277
  130I3C     I0 2968   0.727   1.865  -1.457
  130I3C     I1 2969   0.428   2.346  -1.664
  130I3C     I2 2970   0.293   1.796  -1.872
  130I3C     C0 2971   0.469   2.141  -1.672
  130I3C     C1 2972   0.506   1.865  -1.665
  130I3C     C2 2973   0.388   2.058  -1.750
  130I3C     C3 2974   0.575   2.089  -1.595
  130I3C     C4 2975   0.407   1.920  -1.748
  130I3C     C5 2976   0.588   1.949  -1.589
  130I3C     C6 2977   0.280   2.120  -1.836
  130I3C     C7 2978   0.523   1.716  -1.656
  130I3C     O0 2979   0.326   2.163  -1.949
  130I3C     O1 2980   0.614   1.656  -1.710
  130I3C     O2 2981   0.165   2.127  -1.800
  130I3C     O3 2982   0.431   1.660  -1.582
  130I3C     O4 2983   0.431   2.990  -1.566
  130I3C     H0 2984   0.270   2.211  -1.985
  130I3C     H1 2985   0.446   1.579  -1.575
  130I3C     H2 2986   0.646   2.258  -1.523
  130I3C     H3 2987   0.723   2.140  -1.475
  130I3C     H4 2988   0.374   2.983  -1.503
  130I3C     H5 2989   0.395   2.964  -1.638
  130I3C     N0 2990   0.659   2.173  -1.522
  131I3C     I0 2991   0.727   1.865   0.442
  131I3C     I1 2992   0.428   2.346   0.235
  131I3C     I2 2993   0.293   1.796   0.027
  131I3C     C0 2994   0.469   2.141   0.227
  131I3C     C1 2995   0.506   1.865   0.234
  131I3C     C2 2996   0.388   2.058   0.149
  131I3C     C3 2997   0.575   2.089   0.304
  131I3C     C4 2998   0.407   1.920   0.151
  131I3C     C5 2999   0.588   1.949   0.310
  131I3C     C6 3000   0.280   2.120   0.064
  131I3C     C7 3001   0.523   1.716   0.244
  131I3C     O0 3002   0.326   2.163  -0.050
  131I3C     O1 3003   0.614   1.656   0.190
  131I3C     O2 3004   0.165   2.127   0.099
  131I3C     O3 3005   0.431   1.660   0.317
  131I3C     O4 3006   0.431   2.990   0.333
  131I3C     H0 3007   0.270   2.211  -0.086
  131I3C     H1 3008   0.446   1.579   0.324
  131I3C     H2 3009   0.646   2.258   0.377
  131I3C     H3 3010   0.723   2.140   0.424
  131I3C     H4 3011   0.374   2.983   0.396
  131I3C     H5 3012   0.395   2.964   0.261
  131I3C     N0 3013   0.659   2.173   0.377
  132I3C     I0 3014   0.727   1.865   2.342
  132I3C     I1 3015   0.428   2.346   2.134
  132I3C     I2 3016   0.293   1.796   1.927
  132I3C     C0 3017   0.469   2.141   2.127
  132I3C     C1 3018   0.506   1.865   2.133
  132I3C     C2 3019   0.388   2.058   2.049
  132I3C     C3 3020   0.575   2.089   2.203
  132I3C     C4 3021   0.407   1.920   2.050
  132I3C     C5 3022   0.588   1.949   2.209
  132I3C     C6 3023   0.280   2.120   1.963
  132I3C     C7 3024   0.523   1.716   2.143
  132I3C     O0 3025   0.326   2.163   1.849
  132I3C     O1 3026   0.614   1.656   2.089
  132I3C     O2 3027   0.165   2.127   1.998
  132I3C     O3 3028   0.431   1.660   2.217
  132I3C     O4 3029   0.431   2.990   2.233
  132I3C     H0 3030   0.270   2.211   1.813
  132I3C     H1 3031   0.446   1.579   2.223
  132I3C     H2 3032   0.646   2.258   2.276
  132I3C     H3 3033   0.723   2.140   2.323
  132I3C     H4 3034   0.374   2.983   2.296
  132I3C     H5 3035   0.395   2.964   2.160
  132I3C     N0 3036   0.659   2.173   2.277
  133I3C     I0 3037   1.658   1.865  -1.457
  133I3C     I1 3038   1.358   2.346  -1.664
  133I3C     I2 3039   1.223   1.796  -1.872
  133I3C     C0 3040   1.399   2.141  -1.672
  133I3C     C1 3041   1.437   1.865  -1.665
  133I3C     C2 3042   1.319   2.058  -1.750
  133I3C     C3 3043   1.505   2.089  -1.595
  133I3C     C4 3044   1.338   1.920  -1.748
  133I3C     C5 3045   1.519   1.949  -1.589
  133I3C     C6 3046   1.211   2.120  -1.836
  133I3C     C7 3047   1.453   1.716  -1.656
  133I3C     O0 3048   1.257   2.163  -1.949
  133I3C     O1 3049   1.544   1.656  -1.710
  133I3C     O2 3050   1.095   2.127  -1.800
  133I3C     O3 3051   1.361   1.660  -1.582
  133I3C     O4 3052   1.362   2.990  -1.566
  133I3C     H0 3053   1.201   2.211  -1.985
  133I3C     H1 3054   1.377   1.579  -1.575
  133I3C     H2 3055   1.577   2.258  -1.523
  133I3C     H3 3056   1.654   2.140  -1.475
  133I3C     H4 3057   1.305   2.983  -1.503
  133I3C     H5 3058   1.325   2.964  -1.638
  133I3C     N0 3059   1.589   2.173  -1.522
  134I3C     I0 3060   1.658   1.865   0.442
  134I3C     I1 3061   1.358   2.346   0.235
  134I3C     I2 3062   1.223   1.796   0.027
  134I3C     C0 3063   1.399   2.141   0.227
  134I3C     C1 3064   1.437   1.865   0.234
  134I3C     C2 3065   1.319   2.058   0.149
  134I3C     C3 3066   1.505   2.089   0.304
  134I3C     C4 3067   1.338   1.920   0.151
  134I3C     C5 3068   1.519   1.949   0.310
  134I3C     C6 3069   1.211   2.120   0.064
  134I3C     C7 3070   1.453   1.716   0.244
  134I3C     O0 3071   1.257   2.163  -0.050
  134I3C     O1 3072   1.544   1.656   0.190
  134I3C     O2 3073   1.095   2.127   0.099
  134I3C     O3 3074   1.361   1.660   0.317
  134I3C     O4 3075   1.362   2.990   0.333
  134I3C     H0 3076   1.201   2.211  -0.086
  134I3C     H1 3077   1.377   1.579   0.324
  134I3C     H2 3078   1.577   2.258   0.377
  134I3C     H3 3079   1.654   2.140   0.424
  134I3C     H4 3080   1.305   2.983   0.396
  134I3C     H5 3081   1.325   2.964   0.261
  134I3C     N0 3082   1.589   2.173   0.377
  135I3C     I0 3083   1.658   1.865   2.342
  135I3C     I1 3084   1.358   2.346   2.134
  135I3C     I2 3085   1.223   1.796   1.927
  135I3C     C0 3086   1.399   2.141   2.127
  135I3C     C1 3087   1.437   1.865   2.133
  135I3C     C2 3088   1.319   2.058   2.049
  135I3C     C3 3089   1.505   2.089   2.203
  135I3C     C4 3090   1.338   1.920   2.050
  135I3C     C5 3091   1.519   1.949   2.209
  135I3C     C6 3092   1.211   2.120   1.963
  135I3C     C7 3093   1.453   1.716   2.143
  135I3C     O0 3094   1.257   2.163   1.849
  135I3C     O1 3095   1.544   1.656   2.089
  135I3C     O2 3096   1.095   2.127   1.998
  135I3C     O3 3097   1.361   1.660   2.217
  135I3C     O4 3098   1.362   2.990   2.233
  135I3C     H0 3099   1.201   2.211   1.813
  135I3C     H1 3100   1.377   1.579   2.223
  135I3C     H2 3101   1.577   2.258   2.276
  135I3C     H3 3102   1.654   2.140   2.323
  135I3C     H4 3103   1.305   2.983   2.296
  135I3C     H5 3104   1.325   2.964   2.160
  135I3C     N0 3105   1.589   2.173   2.277
  136I3C     I0 3106   0.664  -0.521  -1.457
  136I3C     I1 3107   0.964  -0.039  -1.664
  136I3C     I2 3108   1.098  -0.590  -1.872
  136I3C     C0 3109   0.922  -0.245  -1.672
  136I3C     C1 3110   0.885  -0.521  -1.665
  136I3C     C2 3111   1.003  -0.328  -1.750
  136I3C     C3 3112   0.816  -0.297  -1.595
  136I3C     C4 3113   0.984  -0.465  -1.748
  136I3C     C5 3114   0.803  -0.437  -1.589
  136I3C     C6 3115   1.111  -0.266  -1.836
  136I3C     C7 3116   0.868  -0.670  -1.656
  136I3C     O0 3117   1.065  -0.223  -1.949
  136I3C     O1 3118   0.777  -0.729  -1.710
  136I3C     O2 3119   1.227  -0.259  -1.800
  136I3C     O3 3120   0.960  -0.726  -1.582
  136I3C     O4 3121   0.960   0.604  -1.566
  136I3C     H0 3122   1.121  -0.175  -1.985
  136I3C     H1 3123   0.945  -0.807  -1.575
  136I3C     H2 3124   0.745  -0.127  -1.523
  136I3C     H3 3125   0.668  -0.246  -1.475
  136I3C     H4 3126   1.017   0.597  -1.503
  136I3C     H5 3127   0.996   0.578  -1.638
  136I3C     N0 3128   0.732  -0.213  -1.522
  137I3C     I0 3129   0.664  -0.521   0.442
  137I3C     I1 3130   0.964  -0.039   0.235
  137I3C     I2 3131   1.098  -0.590   0.027
  137I3C     C0 3132   0.922  -0.245   0.227
  137I3C     C1 3133   0.885  -0.521   0.234
  137I3C     C2 3134   1.003  -0.328   0.149
  137I3C     C3 3135   0.816  -0.297   0.304
  137I3C     C4 3136   0.984  -0.465   0.151
  137I3C     C5 3137   0.803  -0.437   0.310
  137I3C     C6 3138   1.111  -0.266   0.064
  137I3C     C7 3139   0.868  -0.670   0.244
  137I3C     O0 3140   1.065  -0.223  -0.050
  137I3C     O1 3141   0.777  -0.729   0.190
  137I3C     O2 3142   1.227  -0.259   0.099
  137I3C     O3 3143   0.960  -0.726   0.317
  137I3C     O4 3144   0.960   0.604   0.333
  137I3C     H0 3145   1.121  -0.175  -0.086
  137I3C     H1 3146   0.945  -0.807   0.324
  137I3C     H2 3147   0.745  -0.127   0.377
  137I3C     H3 3148   0.668  -0.246   0.424
  137I3C     H4 3149   1.017   0.597   0.396
  137I3C     H5 3150   0.996   0.578   0.261
  137I3C     N0 3151   0.732  -0.213   0.377
  138I3C     I0 3152   0.664  -0.521   2.342
  138I3C     I1 3153   0.964  -0.039   2.134
  138I3C     I2 3154   1.098  -0.590   1.927
  138I3C     C0 3155   0.922  -0.245   2.127
  138I3C     C1 3156   0.885  -0.521   2.133
  138I3C     C2 3157   1.003  -0.328   2.049
  138I3C     C3 3158   0.816  -0.297   2.203
  138I3C     C4 3159   0.984  -0.465   2.050
  138I3C     C5 3160   0.803  -0.437   2.209
  138I3C     C6 3161   1.111  -0.266   1.963
  138I3C     C7 3162   0.868  -0.670   2.143
  138I3C     O0 3163   1.065  -0.223   1.849
  138I3C     O1 3164   0.777  -0.729   2.089
  138I3C     O2 3165   1.227  -0.259   1.998
  138I3C     O3 3166   0.960  -0.726   2.217
  138I3C     O4 3167   0.960   0.604   2.233
  138I3C     H0 3168   1.121  -0.175   1.813
  138I3C     H1 3169   0.945  -0.807   2.223
  138I3C     H2 3170   0.745  -0.127   2.276
  138I3C     H3 3171   0.668  -0.246   2.323
  138I3C     H4 3172   1.017   0.597   2.296
  138I3C     H5 3173   0.996   0.578   2.160
  138I3C     N0 3174   0.732  -0.213   2.277
  139I3C     I0 3175   1.594  -0.521  -1.457
  139I3C     I1 3176   1.894  -0.039  -1.664
  139I3C     I2 3177   2.029  -0.590  -1.872
  139I3C     C0 3178   1.853  -0.245  -1.672
  139I3C     C1 3179   1.815  -0.521  -1.665
  139I3C     C2 3180   1.934  -0.328  -1.750
  139I3C     C3 3181   1.747  -0.297  -1.595
  139I3C     C4 3182   1.914  -0.465  -1.748
  139I3C     C5 3183   1.733  -0.437  -1.589
  139I3C     C6 3184   2.042  -0.266  -1.836
  139I3C     C7 3185   1.799  -0.670  -1.656
  139I3C     O0 3186   1.995  -0.223  -1.949
  139I3C     O1 3187   1.708  -0.729  -1.710
  139I3C     O2 3188   2.157  -0.259  -1.800
  139I3C     O3 3189   1.891  -0.726  -1.582
  139I3C     O4 3190   1.890   0.604  -1.566
  139I3C     H0 3191   2.051  -0.175  -1.985
  139I3C     H1 3192   1.875  -0.807  -1.575
  139I3C     H2 3193   1.676  -0.127  -1.523
  139I3C     H3 3194   1.598  -0.246  -1.475
  139I3C     H4 3195   1.947   0.597  -1.503
  139I3C     H5 3196   1.927   0.578  -1.638
  139I3C     N0 3197   1.663  -0.213  -1.522
  140I3C     I0 3198   1.594  -0.521   0.442
  140I3C     I1 3199   1.894  -0.039   0.235
  140I3C     I2 3200   2.029  -0.590   0.027
  140I3C     C0 3201   1.853  -0.245   0.227
  140I3C     C1 3202   1.815  -0.521   0.234
  140I3C     C2 3203   1.934  -0.328   0.149
  140I3C     C3 3204   1.747  -0.297   0.304
  140I3C     C4 3205   1.914  -0.465   0.151
  140I3C     C5 3206   1.733  -0.437   0.310
  140I3C     C6 3207   2.042  -0.266   0.064
  140I3C     C7 3208   1.799  -0.670   0.244
  140I3C     O0 3209   1.995  -0.223  -0.050
  140I3C     O1 3210   1.708  -0.729   0.190
  140I3C     O2 3211   2.157  -0.259   0.099
  140I3C     O3 3212   1.891  -0.726   0.317
  140I3C     O4 3213   1.890   0.604   0.333
  140I3C     H0 3214   2.051  -0.175  -0.086
  140I3C     H1 3215   1.875  -0.807   0.324
  140I3C     H2 3216   1.676  -0.127   0.377
  140I3C     H3 3217   1.598  -0.246   0.424
  140I3C     H4 3218   1.947   0.597   0.396
  140I3C     H5 3219   1.927   0.578   0.261
  140I3C     N0 3220   1.663  -0.213   0.377
  141I3C     I0 3221   1.594  -0.521   2.342
  141I3C     I1 3222   1.894  -0.039   2.134
  141I3C     I2 3223   2.029  -0.590   1.927
  141I3C     C0 3224   1.853  -0.245   2.127
  141I3C     C1 3225   1.815  -0.521   2.133
  141I3C     C2 3226   1.934  -0.328   2.049
  141I3C     C3 3227   1.747  -0.297   2.203
  141I3C     C4 3228   1.914  -0.465   2.050
  141I3C     C5 3229   1.733  -0.437   2.209
  141I3C     C6 3230   2.042  -0.266   1.963
  141I3C     C7 3231   1.799  -0.670   2.143
  141I3C     O0 3232   1.995  -0.223   1.849
  141I3C     O1 3233   1.708  -0.729   2.089
  141I3C     O2 3234   2.157  -0.259   1.998
  141I3C     O3 3235   1.891  -0.726   2.217
  141I3C     O4 3236   1.890   0.604   2.233
  141I3C     H0 3237   2.051  -0.175   1.813
  141I3C     H1 3238   1.875  -0.807   2.223
  141I3C     H2 3239   1.676  -0.127   2.276
  141I3C     H3 3240   1.598  -0.246   2.323
  141I3C     H4 3241   1.947   0.597   2.296
  141I3C     H5 3242   1.927   0.578   2.160
  141I3C     N0 3243   1.663  -0.213   2.277
  142I3C     I0 3244   2.525  -0.521  -1.457
  142I3C     I1 3245   2.825  -0.039  -1.664
  142I3C     I2 3246   2.959  -0.590  -1.872
  142I3C     C0 3247   2.783  -0.245  -1.672
  142I3C     C1 3248   2.746  -0.521  -1.665
  142I3C     C2 3249   2.864  -0.328  -1.750
  142I3C     C3 3250   2.677  -0.297  -1.595
  142I3C     C4 3251   2.845  -0.465  -1.748
  142I3C     C5 3252   2.664  -0.437  -1.589
  142I3C     C6 3253   2.972  -0.266  -1.836
  142I3C     C7 3254   2.729  -0.670  -1.656
  142I3C     O0 3255   2.925  -0.223  -1.949
  142I3C     O1 3256   2.638  -0.729  -1.710
  142I3C     O2 3257   3.087  -0.259  -1.800
  142I3C     O3 3258   2.821  -0.726  -1.582
  142I3C     O4 3259   2.821   0.604  -1.566
  142I3C     H0 3260   2.982  -0.175  -1.985
  142I3C     H1 3261   2.806  -0.807  -1.575
  142I3C     H2 3262   2.606  -0.127  -1.523
  142I3C     H3 3263   2.529  -0.246  -1.475
  142I3C     H4 3264   2.878   0.597  -1.503
  142I3C     H5 3265   2.857   0.578  -1.638
  142I3C     N0 3266   2.593  -0.213  -1.522
  143I3C     I0 3267   2.525  -0.521   0.442
  143I3C     I1 3268   2.825  -0.039   0.235
  143I3C     I2 3269   2.959  -0.590   0.027
  143I3C     C0 3270   2.783  -0.245   0.227
  143I3C     C1 3271   2.746  -0.521   0.234
  143I3C     C2 3272   2.864  -0.328   0.149
  143I3C     C3 3273   2.677  -0.297   0.304
  143I3C     C4 3274   2.845  -0.465   0.151
  143I3C     C5 3275   2.664  -0.437   0.310
  143I3C     C6 3276   2.972  -0.266   0.064
  143I3C     C7 3277   2.729  -0.670   0.244
  143I3C     O0 3278   2.925  -0.223  -0.050
  143I3C     O1 3279   2.638  -0.729   0.190
  143I3C     O2 3280   3.087  -0.259   0.099
  143I3C     O3 3281   2.821  -0.726   0.317
  143I3C     O4 3282   2.821   0.604   0.333
  143I3C     H0 3283   2.982  -0.175  -0.086
  143I3C     H1 3284   2.806  -0.807   0.324
  143I3C     H2 3285   2.606  -0.127   0.377
  143I3C     H3 3286   2.529  -0.246   0.424
  143I3C     H4 3287   2.878   0.597   0.396
  143I3C     H5 3288   2.857   0.578   0.261
  143I3C     N0 3289   2.593  -0.213   0.377
  144I3C     I0 3290   2.525  -0.521   2.342
  144I3C     I1 3291   2.825  -0.039   2.134
  144I3C     I2 3292   2.959  -0.590   1.927
  144I3C     C0 3293   2.783  -0.245   2.127
  144I3C     C1 3294   2.746  -0.521   2.133
  144I3C     C2 3295   2.864  -0.328   2.049
  144I3C     C3 3296   2.677  -0.297   2.203
  144I3C     C4 3297   2.845  -0.465   2.050
  144I3C     C5 3298   2.664  -0.437   2.209
  144I3C     C6 3299   2.972  -0.266   1.963
  144I3C     C7 3300   2.729  -0.670   2.143
  144I3C     O0 3301   2.925  -0.223   1.849
  144I3C     O1 3302   2.638  -0.729   2.089
  144I3C     O2 3303   3.087  -0.259   1.998
  144I3C     O3 3304   2.821  -0.726   2.217
  144I3C     O4 3305   2.821   0.604   2.233
  144I3C     H0 3306   2.982  -0.175   1.813
  144I3C     H1 3307   2.806  -0.807   2.223
  144I3C     H2 3308   2.606  -0.127   2.276
  144I3C     H3 3309   2.529  -0.246   2.323
  144I3C     H4 3310   2.878   0.597   2.296
  144I3C     H5 3311   2.857   0.578   2.160
  144I3C     N0 3312   2.593  -0.213   2.277
  145I3C     I0 3313   0.664   1.065  -1.457
  145I3C     I1 3314   0.964   1.547  -1.664
  145I3C     I2 3315   1.098   0.996  -1.872
  145I3C     C0 3316   0.922   1.341  -1.672
  145I3C     C1 3317   0.885   1.066  -1.665
  145I3C     C2 3318   1.003   1.258  -1.750
  145I3C     C3 3319   0.816   1.290  -1.595
  145I3C     C4 3320   0.984   1.121  -1.748
  145I3C     C5 3321   0.803   1.150  -1.589
  145I3C     C6 3322   1.111   1.321  -1.836
  145I3C     C7 3323   0.868   0.916  -1.656
  145I3C     O0 3324   1.065   1.363  -1.949
  145I3C     O1 3325   0.777   0.857  -1.710
  145I3C     O2 3326   1.227   1.328  -1.800
  145I3C     O3 3327   0.960   0.860  -1.582
  145I3C     O4 3328   0.960   2.190  -1.566
  145I3C     H0 3329   1.121   1.411  -1.985
  145I3C     H1 3330   0.945   0.780  -1.575
  145I3C     H2 3331   0.745   1.459  -1.523
  145I3C     H3 3332   0.668   1.340  -1.475
  145I3C     H4 3333   1.017   2.184  -1.503
  145I3C     H5 3334   0.996   2.164  -1.638
  145I3C     N0 3335   0.732   1.373  -1.522
  146I3C     I0 3336   0.664   1.065   0.442
  146I3C     I1 3337   0.964   1.547   0.235
  146I3C     I2 3338   1.098   0.996   0.027
  146I3C     C0 3339   0.922   1.341   0.227
  146I3C     C1 3340   0.885   1.066   0.234
  146I3C     C2 3341   1.003   1.258   0.149
  146I3C     C3 3342   0.816   1.290   0.304
  146I3C     C4 3343   0.984   1.121   0.151
  146I3C     C5 3344   0.803   1.150   0.310
  146I3C     C6 3345   1.111   1.321   0.064
  146I3C     C7 3346   0.868   0.916   0.244
  146I3C     O0 3347   1.065   1.363  -0.050
  146I3C     O1 3348   0.777   0.857   0.190
  146I3C     O2 3349   1.227   1.328   0.099
  146I3C     O3 3350   0.960   0.860   0.317
  146I3C     O4 3351   0.960   2.190   0.333
  146I3C     H0 3352   1.121   1.411  -0.086
  146I3C     H1 3353   0.945   0.780   0.324
  146I3C     H2 3354   0.745   1.459   0.377
  146I3C     H3 3355   0.668   1.340   0.424
  146I3C     H4 3356   1.017   2.184   0.396
  146I3C     H5 3357   0.996   2.164   0.261
  146I3C     N0 3358   0.732   1.373   0.377
  147I3C     I0 3359   0.664   1.065   2.342
  147I3C     I1 3360   0.964   1.547   2.134
  147I3C     I2 3361   1.098   0.996   1.927
  147I3C     C0 3362   0.922   1.341   2.127
  147I3C     C1 3363   0.885   1.066   2.133
  147I3C     C2 3364   1.003   1.258   2.049
  147I3C     C3 3365   0.816   1.290   2.203
  147I3C     C4 3366   0.984   1.121   2.050
  147I3C     C5 3367   0.803   1.150   2.209
  147I3C     C6 3368   1.111   1.321   1.963
  147I3C     C7 3369   0.868   0.916   2.143
  147I3C     O0 3370   1.065   1.363   1.849
  147I3C     O1 3371   0.777   0.857   2.089
  147I3C     O2 3372   1.227   1.328   1.998
  147I3C     O3 3373   0.960   0.860   2.217
  147I3C     O4 3374   0.960   2.190   2.233
  147I3C     H0 3375   1.121   1.411   1.813
  147I3C     H1 3376   0.945   0.780   2.223
  147I3C     H2 3377   0.745   1.459   2.276
  147I3C     H3 3378   0.668   1.340   2.323
  147I3C     H4 3379   1.017   2.184   2.296
  147I3C     H5 3380   0.996   2.164   2.160
  147I3C     N0 3381   0.732   1.373   2.277
  148I3C     I0 3382   1.594   1.065  -1.457
  148I3C     I1 3383   1.894   1.547  -1.664
  148I3C     I2 3384   2.029   0.996  -1.872
  148I3C     C0 3385   1.853   1.341  -1.672
  148I3C     C1 3386   1.815   1.066  -1.665
  148I3C     C2 3387   1.934   1.258  -1.750
  148I3C     C3 3388   1.747   1.290  -1.595
  148I3C     C4 3389   1.914   1.121  -1.748
  148I3C     C5 3390   1.733   1.150  -1.589
  148I3C     C6 3391   2.042   1.321  -1.836
  148I3C     C7 3392   1.799   0.916  -1.656
  148I3C     O0 3393   1.995   1.363  -1.949
  148I3C     O1 3394   1.708   0.857  -1.710
  148I3C     O2 3395   2.157   1.328  -1.800
  148I3C     O3 3396   1.891   0.860  -1.582
  148I3C     O4 3397   1.890   2.190  -1.566
  148I3C     H0 3398   2.051   1.411  -1.985
  148I3C     H1 3399   1.875   0.780  -1.575
  148I3C     H2 3400   1.676   1.459  -1.523
  148I3C     H3 3401   1.598   1.340  -1.475
  148I3C     H4 3402   1.947   2.184  -1.503
  148I3C     H5 3403   1.927   2.164  -1.638
  148I3C     N0 3404   1.663   1.373  -1.522
  149I3C     I0 3405   1.594   1.065   0.442
  149I3C     I1 3406   1.894   1.547   0.235
  149I3C     I2 3407   2.029   0.996   0.027
  149I3C     C0 3408   1.853   1.341   0.227
  149I3C     C1 3409   1.815   1.066   0.234
  149I3C     C2 3410   1.934   1.258   0.149
  149I3C     C3 3411   1.747   1.290   0.304
  149I3C     C4 3412   1.914   1.121   0.151
  149I3C     C5 3413   1.733   1.150   0.310
  149I3C     C6 3414   2.042   1.321   0.064
  149I3C     C7 3415   1.799   0.916   0.244
  149I3C     O0 3416   1.995   1.363  -0.050
  149I3C     O1 3417   1.708   0.857   0.190
  149I3C     O2 3418   2.157   1.328   0.099
  149I3C     O3 3419   1.891   0.860   0.317
  149I3C     O4 3420   1.890   2.190   0.333
  149I3C     H0 3421   2.051   1.411  -0.086
  149I3C     H1 3422   1.875   0.780   0.324
  149I3C     H2 3423   1.676   1.459   0.377
  149I3C     H3 3424   1.598   1.340   0.424
  149I3C     H4 3425   1.947   2.184   0.396
  149I3C     H5 3426   1.927   2.164   0.261
  149I3C     N0 3427   1.663   1.373   0.377
  150I3C     I0 3428   1.594   1.065   2.342
  150I3C     I1 3429   1.894   1.547   2.134
  150I3C     I2 3430   2.029   0.996   1.927
  150I3C     C0 3431   1.853   1.341   2.127
  150I3C     C1 3432   1.815   1.066   2.133
  150I3C     C2 3433   1.934   1.258   2.049
  150I3C     C3 3434   1.747   1.290   2.203
  150I3C     C4 3435   1.914   1.121   2.050
  150I3C     C5 3436   1.733   1.150   2.209
  150I3C     C6 3437   2.042   1.321   1.963
  150I3C     C7 3438   1.799   0.916   2.143
  150I3C     O0 3439   1.995   1.363   1.849
  150I3C     O1 3440   1.708   0.857   2.089
  150I3C     O2 3441   2.157   1.328   1.998
  150I3C     O3 3442   1.891   0.860   2.217
  150I3C     O4 3443   1.890   2.190   2.233
  150I3C     H0 3444   2.051   1.411   1.813
  150I3C     H1 3445   1.875   0.780   2.223
  150I3C     H2 3446   1.676   1.459   2.276
  150I3C     H3 3447   1.598   1.340   2.323
  150I3C     H4 3448   1.947   2.184   2.296
  150I3C     H5 3449   1.927   2.164   2.160
  150I3C     N0 3450   1.663   1.373   2.277
  151I3C     I0 3451   2.525   1.065  -1.457
  151I3C     I1 3452   2.825   1.547  -1.664
  151I3C     I2 3453   2.959   0.996  -1.872
  151I3C     C0 3454   2.783   1.341  -1.672
  151I3C     C1 3455   2.746   1.066  -1.665
  151I3C     C2 3456   2.864   1.258  -1.750
  151I3C     C3 3457   2.677   1.290  -1.595
  151I3C     C4 3458   2.845   1.121  -1.748
  151I3C     C5 3459   2.664   1.150  -1.589
  151I3C     C6 3460   2.972   1.321  -1.836
  151I3C     C7 3461   2.729   0.916  -1.656
  151I3C     O0 3462   2.925   1.363  -1.949
  151I3C     O1 3463   2.638   0.857  -1.710
  151I3C     O2 3464   3.087   1.328  -1.800
  151I3C     O3 3465   2.821   0.860  -1.582
  151I3C     O4 3466   2.821   2.190  -1.566
  151I3C     H0 3467   2.982   1.411  -1.985
  151I3C     H1 3468   2.806   0.780  -1.575
  151I3C     H2 3469   2.606   1.459  -1.523
  151I3C     H3 3470   2.529   1.340  -1.475
  151I3C     H4 3471   2.878   2.184  -1.503
  151I3C     H5 3472   2.857   2.164  -1.638
  151I3C     N0 3473   2.593   1.373  -1.522
  152I3C     I0 3474   2.525   1.065   0.442
  152I3C     I1 3475   2.825   1.547   0.235
  152I3C     I2 3476   2.959   0.996   0.027
  152I3C     C0 3477   2.783   1.341   0.227
  152I3C     C1 3478   2.746   1.066   0.234
  152I3C     C2 3479   2.864   1.258   0.149
  152I3C     C3 3480   2.677   1.290   0.304
  152I3C     C4 3481   2.845   1.121   0.151
  152I3C     C5 3482   2.664   1.150   0.310
  152I3C     C6 3483   2.972   1.321   0.064
  152I3C     C7 3484   2.729   0.916   0.244
  152I3C     O0 3485   2.925   1.363  -0.050
  152I3C     O1 3486   2.638   0.857   0.190
  152I3C     O2 3487   3.087   1.328   0.099
  152I3C     O3 3488   2.821   0.860   0.317
  152I3C     O4 3489   2.821   2.190   0.333
  152I3C     H0 3490   2.982   1.411  -0.086
  152I3C     H1 3491   2.806   0.780   0.324
  152I3C     H2 3492   2.606   1.459   0.377
  152I3C     H3 3493   2.529   1.340   0.424
  152I3C     H4 3494   2.878   2.184   0.396
  152I3C     H5 3495   2.857   2.164   0.261
  152I3C     N0 3496   2.593   1.373   0.377
  153I3C     I0 3497   2.525   1.065   2.342
  153I3C     I1 3498   2.825   1.547   2.134
  153I3C     I2 3499   2.959   0.996   1.927
  153I3C     C0 3500   2.783   1.341   2.127
  153I3C     C1 3501   2.746   1.066   2.133
  153I3C     C2 3502   2.864   1.258   2.049
  153I3C     C3 3503   2.677   1.290   2.203
  153I3C     C4 3504   2.845   1.121   2.050
  153I3C     C5 3505   2.664   1.150   2.209
  153I3C     C6 3506   2.972   1.321   1.963
  153I3C     C7 3507   2.729   0.916   2.143
  153I3C     O0 3508   2.925   1.363   1.849
  153I3C     O1 3509   2.638   0.857   2.089
  153I3C     O2 3510   3.087   1.328   1.998
  153I3C     O3 3511   2.821   0.860   2.217
  153I3C     O4 3512   2.821   2.190   2.233
  153I3C     H0 3513   2.982   1.411   1.813
  153I3C     H1 3514   2.806   0.780   2.223
  153I3C     H2 3515   2.606   1.459   2.276
  153I3C     H3 3516   2.529   1.340   2.323
  153I3C     H4 3517   2.878   2.184   2.296
  153I3C     H5 3518   2.857   2.164   2.160
  153I3C     N0 3519   2.593   1.373   2.277
  154I3C     I0 3520   0.664   2.651  -1.457
  154I3C     I1 3521   0.964   3.133  -1.664
  154I3C     I2 3522   1.098   2.582  -1.872
  154I3C     C0 3523   0.922   2.927  -1.672
  154I3C     C1 3524   0.885   2.652  -1.665
  154I3C     C2 3525   1.003   2.844  -1.750
  154I3C     C3 3526   0.816   2.876  -1.595
  154I3C     C4 3527   0.984   2.707  -1.748
  154I3C     C5 3528   0.803   2.736  -1.589
  154I3C     C6 3529   1.111   2.907  -1.836
  154I3C     C7 3530   0.868   2.502  -1.656
  154I3C     O0 3531   1.065   2.950  -1.949
  154I3C     O1 3532   0.777   2.443  -1.710
  154I3C     O2 3533   1.227   2.914  -1.800
  154I3C     O3 3534   0.960   2.446  -1.582
  154I3C     O4 3535   0.960   3.777  -1.566
  154I3C     H0 3536   1.121   2.997  -1.985
  154I3C     H1 3537   0.945   2.366  -1.575
  154I3C     H2 3538   0.745   3.045  -1.523
  154I3C     H3 3539   0.668   2.926  -1.475
  154I3C     H4 3540   1.017   3.770  -1.503
  154I3C     H5 3541   0.996   3.751  -1.638
  154I3C     N0 3542   0.732   2.960  -1.522
  155I3C     I0 3543   0.664   2.651   0.442
  155I3C     I1 3544   0.964   3.133   0.235
  155I3C     I2 3545   1.098   2.582   0.027
  155I3C     C0 3546   0.922   2.927   0.227
  155I3C     C1 3547   0.885   2.652   0.234
  155I3C     C2 3548   1.003   2.844   0.149
  155I3C     C3 3549   0.816   2.876   0.304
  155I3C     C4 3550   0.984   2.707   0.151
  155I3C     C5 3551   0.803   2.736   0.310
  155I3C     C6 3552   1.111   2.907   0.064
  155I3C     C7 3553   0.868   2.502   0.244
  155I3C     O0 3554   1.065   2.950  -0.050
  155I3C     O1 3555   0.777   2.443   0.190
  155I3C     O2 3556   1.227   2.914   0.099
  155I3C     O3 3557   0.960   2.446   0.317
  155I3C     O4 3558   0.960   3.777   0.333
  155I3C     H0 3559   1.121   2.997  -0.086
  155I3C     H1 3560   0.945   2.366   0.324
  155I3C     H2 3561   0.745   3.045   0.377
  155I3C     H3 3562   0.668   2.926   0.424
  155I3C     H4 3563   1.017   3.770   0.396
  155I3C     H5 3564   0.996   3.751   0.261
  155I3C     N0 3565   0.732   2.960   0.377
  156I3C     I0 3566   0.664   2.651   2.342
  156I3C     I1 3567   0.964   3.133   2.134
  156I3C     I2 3568   1.098   2.582   1.927
  156I3C     C0 3569   0.922   2.927   2.127
  156I3C     C1 3570   0.885   2.652   2.133
  156I3C     C2 3571   1.003   2.844   2.049
  156I3C     C3 3572   0.816   2.876   2.203
  156I3C     C4 3573   0.984   2.707   2.050
  156I3C     C5 3574   0.803   2.736   2.209
  156I3C     C6 3575   1.111   2.907   1.963
  156I3C     C7 3576   0.868   2.502   2.143
  156I3C     O0 3577   1.065   2.950   1.849
  156I3C     O1 3578   0.777   2.443   2.089
  156I3C     O2 3579   1.227   2.914   1.998
  156I3C     O3 3580   0.960   2.446   2.217
  156I3C     O4 3581   0.960   3.777   2.233
  156I3C     H0 3582   1.121   2.997   1.813
  156I3C     H1 3583   0.945   2.366   2.223
  156I3C     H2 3584   0.745   3.045   2.276
  156I3C     H3 3585   0.668   2.926   2.323
  156I3C     H4 3586   1.017   3.770   2.296
  156I3C     H5 3587   0.996   3.751   2.160
  156I3C     N0 3588   0.732   2.960   2.277
  157I3C     I0 3589   1.594   2.651  -1.457
  157I3C     I1 3590   1.894   3.133  -1.664
  157I3C     I2 3591   2.029   2.582  -1.872
  157I3C     C0 3592   1.853   2.927  -1.672
  157I3C     C1 3593   1.815   2.652  -1.665
  157I3C     C2 3594   1.934   2.844  -1.750
  157I3C     C3 3595   1.747   2.876  -1.595
  157I3C     C4 3596   1.914   2.707  -1.748
  157I3C     C5 3597   1.733   2.736  -1.589
  157I3C     C6 3598   2.042   2.907  -1.836
  157I3C     C7 3599   1.799   2.502  -1.656
  157I3C     O0 3600   1.995   2.950  -1.949
  157I3C     O1 3601   1.708   2.443  -1.710
  157I3C     O2 3602   2.157   2.914  -1.800
  157I3C     O3 3603   1.891   2.446  -1.582
  157I3C     O4 3604   1.890   3.777  -1.566
  157I3C     H0 3605   2.051   2.997  -1.985
  157I3C     H1 3606   1.875   2.366  -1.575
  157I3C     H2 3607   1.676   3.045  -1.523
  157I3C     H3 3608   1.598   2.926  -1.475
  157I3C     H4 3609   1.947   3.770  -1.503
  157I3C     H5 3610   1.927   3.751  -1.638
  157I3C     N0 3611   1.663   2.960  -1.522
  158I3C     I0 3612   1.594   2.651   0.442
  158I3C     I1 3613   1.894   3.133   0.235
  158I3C     I2 3614   2.029   2.582   0.027
  158I3C     C0 3615   1.853   2.927   0.227
  158I3C     C1 3616   1.815   2.652   0.234
  158I3C     C2 3617   1.934   2.844   0.149
  158I3C     C3 3618   1.747   2.876   0.304
  158I3C     C4 3619   1.914   2.707   0.151
  158I3C     C5 3620   1.733   2.736   0.310
  158I3C     C6 3621   2.042   2.907   0.064
  158I3C     C7 3622   1.799   2.502   0.244
  158I3C     O0 3623   1.995   2.950  -0.050
  158I3C     O1 3624   1.708   2.443   0.190
  158I3C     O2 3625   2.157   2.914   0.099
  158I3C     O3 3626   1.891   2.446   0.317
  158I3C     O4 3627   1.890   3.777   0.333
  158I3C     H0 3628   2.051   2.997  -0.086
  158I3C     H1 3629   1.875   2.366   0.324
  158I3C     H2 3630   1.676   3.045   0.377
  158I3C     H3 3631   1.598   2.926   0.424
  158I3C     H4 3632   1.947   3.770   0.396
  158I3C     H5 3633   1.927   3.751   0.261
  158I3C     N0 3634   1.663   2.960   0.377
  159I3C     I0 3635   1.594   2.651   2.342
  159I3C     I1 3636   1.894   3.133   2.134
  159I3C     I2 3637   2.029   2.582   1.927
  159I3C     C0 3638   1.853   2.927   2.127
  159I3C     C1 3639   1.815   2.652   2.133
  159I3C     C2 3640   1.934   2.844   2.049
  159I3C     C3 3641   1.747   2.876   2.203
  159I3C     C4 3642   1.914   2.707   2.050
  159I3C     C5 3643   1.733   2.736   2.209
  159I3C     C6 3644   2.042   2.907   1.963
  159I3C     C7 3645   1.799   2.502   2.143
  159I3C     O0 3646   1.995   2.950   1.849
  159I3C     O1 3647   1.708   2.443   2.089
  159I3C     O2 3648   2.157   2.914   1.998
  159I3C     O3 3649   1.891   2.446   2.217
  159I3C     O4 3650   1.890   3.777   2.233
  159I3C     H0 3651   2.051   2.997   1.813
  159I3C     H1 3652   1.875   2.366   2.223
  159I3C     H2 3653   1.676   3.045   2.276
  159I3C     H3 3654   1.598   2.926   2.323
  159I3C     H4 3655   1.947   3.770   2.296
  159I3C     H5 3656   1.927   3.751   2.160
  159I3C     N0 3657   1.663   2.960   2.277
  160I3C     I0 3658   2.525   2.651  -1.457
  160I3C     I1 3659   2.825   3.133  -1.664
  160I3C     I2 3660   2.959   2.582  -1.872
  160I3C     C0 3661   2.783   2.927  -1.672
  160I3C     C1 3662   2.746   2.652  -1.665
  160I3C     C2 3663   2.864   2.844  -1.750
  160I3C     C3 3664   2.677   2.876  -1.595
  160I3C     C4 3665   2.845   2.707  -1.748
  160I3C     C5 3666   2.664   2.736  -1.589
  160I3C     C6 3667   2.972   2.907  -1.836
  160I3C     C7 3668   2.729   2.502  -1.656
  160I3C     O0 3669   2.925   2.950  -1.949
  160I3C     O1 3670   2.638   2.443  -1.710
  160I3C     O2 3671   3.087   2.914  -1.800
  160I3C     O3 3672   2.821   2.446  -1.582
  160I3C     O4 3673   2.821   3.777  -1.566
  160I3C     H0 3674   2.982   2.997  -1.985
  160I3C     H1 3675   2.806   2.366  -1.575
  160I3C     H2 3676   2.606   3.045  -1.523
  160I3C     H3 3677   2.529   2.926  -1.475
  160I3C     H4 3678   2.878   3.770  -1.503
  160I3C     H5 3679   2.857   3.751  -1.638
  160I3C     N0 3680   2.593   2.960  -1.522
  161I3C     I0 3681   2.525   2.651   0.442
  161I3C     I1 3682   2.825   3.133   0.235
  161I3C     I2 3683   2.959   2.582   0.027
  161I3C     C0 3684   2.783   2.927   0.227
  161I3C     C1 3685   2.746   2.652   0.234
  161I3C     C2 3686   2.864   2.844   0.149
  161I3C     C3 3687   2.677   2.876   0.304
  161I3C     C4 3688   2.845   2.707   0.151
  161I3C     C5 3689   2.664   2.736   0.310
  161I3C     C6 3690   2.972   2.907   0.064
  161I3C     C7 3691   2.729   2.502   0.244
  161I3C     O0 3692   2.925   2.950  -0.050
  161I3C     O1 3693   2.638   2.443   0.190
  161I3C     O2 3694   3.087   2.914   0.099
  161I3C     O3 3695   2.821   2.446   0.317
  161I3C     O4 3696   2.821   3.777   0.333
  161I3C     H0 3697   2.982   2.997  -0.086
  161I3C     H1 3698   2.806   2.366   0.324
  161I3C     H2 3699   2.606   3.045   0.377
  161I3C     H3 3700   2.529   2.926   0.424
  161I3C     H4 3701   2.878   3.770   0.396
  161I3C     H5 3702   2.857   3.751   0.261
  161I3C     N0 3703   2.593   2.960   0.377
  162I3C     I0 3704   2.525   2.651   2.342
  162I3C     I1 3705   2.825   3.133   2.134
  162I3C     I2 3706   2.959   2.582   1.927
  162I3C     C0 3707   2.783   2.927   2.127
  162I3C     C1 3708   2.746   2.652   2.133
  162I3C     C2 3709   2.864   2.844   2.049
  162I3C     C3 3710   2.677   2.876   2.203
  162I3C     C4 3711   2.845   2.707   2.050
  162I3C     C5 3712   2.664   2.736   2.209
  162I3C     C6 3713   2.972   2.907   1.963
  162I3C     C7 3714   2.729   2.502   2.143
  162I3C     O0 3715   2.925   2.950   1.849
  162I3C     O1 3716   2.638   2.443   2.089
  162I3C     O2 3717   3.087   2.914   1.998
  162I3C     O3 3718   2.821   2.446   2.217
  162I3C     O4 3719   2.821   3.777   2.233
  162I3C     H0 3720   2.982   2.997   1.813
  162I3C     H1 3721   2.806   2.366   2.223
  162I3C     H2 3722   2.606   3.045   2.276
  162I3C     H3 3723   2.529   2.926   2.323
  162I3C     H4 3724   2.878   3.770   2.296
  162I3C     H5 3725   2.857   3.751   2.160
  162I3C     N0 3726   2.593   2.960   2.277
  163I3C     I0 3727  -0.203   2.095  -0.516
  163I3C     I1 3728  -0.503   1.613  -0.723
  163I3C     I2 3729  -0.638   2.164  -0.931
  163I3C     C0 3730  -0.462   1.819  -0.731
  163I3C     C1 3731  -0.424   2.094  -0.724
  163I3C     C2 3732  -0.542   1.901  -0.809
  163I3C     C3 3733  -0.356   1.870  -0.655
  163I3C     C4 3734  -0.523   2.039  -0.807
  163I3C     C5 3735  -0.342   2.010  -0.649
  163I3C     C6 3736  -0.650   1.839  -0.895
  163I3C     C7 3737  -0.408   2.243  -0.715
  163I3C     O0 3738  -0.604   1.796  -1.008
  163I3C     O1 3739  -0.317   2.303  -0.769
  163I3C     O2 3740  -0.766   1.832  -0.859
  163I3C     O3 3741  -0.500   2.300  -0.641
  163I3C     O4 3742  -0.499   0.969  -0.625
  163I3C     H0 3743  -0.660   1.748  -1.044
  163I3C     H1 3744  -0.484   2.380  -0.635
  163I3C     H2 3745  -0.284   1.701  -0.582
  163I3C     H3 3746  -0.207   1.820  -0.535
  163I3C     H4 3747  -0.556   0.976  -0.562
  163I3C     H5 3748  -0.535   0.995  -0.698
  163I3C     N0 3749  -0.272   1.786  -0.581
  164I3C     I0 3750  -0.203   2.095   1.383
  164I3C     I1 3751  -0.503   1.613   1.176
  164I3C     I2 3752  -0.638   2.164   0.968
  164I3C     C0 3753  -0.462   1.819   1.168
  164I3C     C1 3754  -0.424   2.094   1.175
  164I3C     C2 3755  -0.542   1.901   1.090
  164I3C     C3 3756  -0.356   1.870   1.245
  164I3C     C4 3757  -0.523   2.039   1.092
  164I3C     C5 3758  -0.342   2.010   1.250
  164I3C     C6 3759  -0.650   1.839   1.004
  164I3C     C7 3760  -0.408   2.243   1.184
  164I3C     O0 3761  -0.604   1.796   0.891
  164I3C     O1 3762  -0.317   2.303   1.130
  164I3C     O2 3763  -0.766   1.832   1.040
  164I3C     O3 3764  -0.500   2.300   1.258
  164I3C     O4 3765  -0.499   0.969   1.274
  164I3C     H0 3766  -0.660   1.748   0.855
  164I3C     H1 3767  -0.484   2.380   1.265
  164I3C     H2 3768  -0.284   1.701   1.317
  164I3C     H3 3769  -0.207   1.820   1.365
  164I3C     H4 3770  -0.556   0.976   1.337
  164I3C     H5 3771  -0.535   0.995   1.202
  164I3C     N0 3772  -0.272   1.786   1.318
  165I3C     I0 3773  -0.203   2.095   3.283
  165I3C     I1 3774  -0.503   1.613   3.075
  165I3C     I2 3775  -0.638   2.164   2.867
  165I3C     C0 3776  -0.462   1.819   3.067
  165I3C     C1 3777  -0.424   2.094   3.074
  165I3C     C2 3778  -0.542   1.901   2.989
  165I3C     C3 3779  -0.356   1.870   3.144
  165I3C     C4 3780  -0.523   2.039   2.991
  165I3C     C5 3781  -0.342   2.010   3.150
  165I3C     C6 3782  -0.650   1.839   2.904
  165I3C     C7 3783  -0.408   2.243   3.084
  165I3C     O0 3784  -0.604   1.796   2.790
  165I3C     O1 3785  -0.317   2.303   3.030
  165I3C     O2 3786  -0.766   1.832   2.939
  165I3C     O3 3787  -0.500   2.300   3.158
  165I3C     O4 3788  -0.499   0.969   3.173
  165I3C     H0 3789  -0.660   1.748   2.754
  165I3C     H1 3790  -0.484   2.380   3.164
  165I3C     H2 3791  -0.284   1.701   3.217
  165I3C     H3 3792  -0.207   1.820   3.264
  165I3C     H4 3793  -0.556   0.976   3.237
  165I3C     H5 3794  -0.535   0.995   3.101
  165I3C     N0 3795  -0.272   1.786   3.218
  166I3C     I0 3796   0.727   2.095  -0.516
  166I3C     I1 3797   0.428   1.613  -0.723
  166I3C     I2 3798   0.293   2.164  -0.931
  166I3C     C0 3799   0.469   1.819  -0.731
  166I3C     C1 3800   0.506   2.094  -0.724
  166I3C     C2 3801   0.388   1.901  -0.809
  166I3C     C3 3802   0.575   1.870  -0.655
  166I3C     C4 3803   0.407   2.039  -0.807
  166I3C     C5 3804   0.588   2.010  -0.649
  166I3C     C6 3805   0.280   1.839  -0.895
  166I3C     C7 3806   0.523   2.243  -0.715
  166I3C     O0 3807   0.326   1.796  -1.008
  166I3C     O1 3808   0.614   2.303  -0.769
  166I3C     O2 3809   0.165   1.832  -0.859
  166I3C     O3 3810   0.431   2.300  -0.641
  166I3C     O4 3811   0.431   0.969  -0.625
  166I3C     H0 3812   0.270   1.748  -1.044
  166I3C     H1 3813   0.446   2.380  -0.635
  166I3C     H2 3814   0.646   1.701  -0.582
  166I3C     H3 3815   0.723   1.820  -0.535
  166I3C     H4 3816   0.374   0.976  -0.562
  166I3C     H5 3817   0.395   0.995  -0.698
  166I3C     N0 3818   0.659   1.786  -0.581
  167I3C     I0 3819   0.727   2.095   1.383
  167I3C     I1 3820   0.428   1.613   1.176
  167I3C     I2 3821   0.293   2.164   0.968
  167I3C     C0 3822   0.469   1.819   1.168
  167I3C     C1 3823   0.506   2.094   1.175
  167I3C     C2 3824   0.388   1.901   1.090
  167I3C     C3 3825   0.575   1.870   1.245
  167I3C     C4 3826   0.407   2.039   1.092
  167I3C     C5 3827   0.588   2.010   1.250
  167I3C     C6 3828   0.280   1.839   1.004
  167I3C     C7 3829   0.523   2.243   1.184
  167I3C     O0 3830   0.326   1.796   0.891
  167I3C     O1 3831   0.614   2.303   1.130
  167I3C     O2 3832   0.165   1.832   1.040
  167I3C     O3 3833   0.431   2.300   1.258
  167I3C     O4 3834   0.431   0.969   1.274
  167I3C     H0 3835   0.270   1.748   0.855
  167I3C     H1 3836   0.446   2.380   1.265
  167I3C     H2 3837   0.646   1.701   1.317
  167I3C     H3 3838   0.723   1.820   1.365
  167I3C     H4 3839   0.374   0.976   1.337
  167I3C     H5 3840   0.395   0.995   1.202
  167I3C     N0 3841   0.659   1.786   1.318
  168I3C     I0 3842   0.727   2.095   3.283
  168I3C     I1 3843   0.428   1.613   3.075
  168I3C     I2 3844   0.293   2.164   2.867
  168I3C     C0 3845   0.469   1.819   3.067
  168I3C     C1 3846   0.506   2.094   3.074
  168I3C     C2 3847   0.388   1.901   2.989
  168I3C     C3 3848   0.575   1.870   3.144
  168I3C     C4 3849   0.407   2.039   2.991
  168I3C     C5 3850   0.588   2.010   3.150
  168I3C     C6 3851   0.280   1.839   2.904
  168I3C     C7 3852   0.523   2.243   3.084
  168I3C     O0 3853   0.326   1.796   2.790
  168I3C     O1 3854   0.614   2.303   3.030
  168I3C     O2 3855   0.165   1.832   2.939
  168I3C     O3 3856   0.431   2.300   3.158
  168I3C     O4 3857   0.431   0.969   3.173
  168I3C     H0 3858   0.270   1.748   2.754
  168I3C     H1 3859   0.446   2.380   3.164
  168I3C     H2 3860   0.646   1.701   3.217
  168I3C     H3 3861   0.723   1.820   3.264
  168I3C     H4 3862   0.374   0.976   3.237
  168I3C     H5 3863   0.395   0.995   3.101
  168I3C     N0 3864   0.659   1.786   3.218
  169I3C     I0 3865   1.658   2.095  -0.516
  169I3C     I1 3866   1.358   1.613  -0.723
  169I3C     I2 3867   1.223   2.164  -0.931
  169I3C     C0 3868   1.399   1.819  -0.731
  169I3C     C1 3869   1.437   2.094  -0.724
  169I3C     C2 3870   1.319   1.901  -0.809
  169I3C     C3 3871   1.505   1.870  -0.655
  169I3C     C4 3872   1.338   2.039  -0.807
  169I3C     C5 3873   1.519   2.010  -0.649
  169I3C     C6 3874   1.211   1.839  -0.895
  169I3C     C7 3875   1.453   2.243  -0.715
  169I3C     O0 3876   1.257   1.796  -1.008
  169I3C     O1 3877   1.544   2.303  -0.769
  169I3C     O2 3878   1.095   1.832  -0.859
  169I3C     O3 3879   1.361   2.300  -0.641
  169I3C     O4 3880   1.362   0.969  -0.625
  169I3C     H0 3881   1.201   1.748  -1.044
  169I3C     H1 3882   1.377   2.380  -0.635
  169I3C     H2 3883   1.577   1.701  -0.582
  169I3C     H3 3884   1.654   1.820  -0.535
  169I3C     H4 3885   1.305   0.976  -0.562
  169I3C     H5 3886   1.325   0.995  -0.698
  169I3C     N0 3887   1.589   1.786  -0.581
  170I3C     I0 3888   1.658   2.095   1.383
  170I3C     I1 3889   1.358   1.613   1.176
  170I3C     I2 3890   1.223   2.164   0.968
  170I3C     C0 3891   1.399   1.819   1.168
  170I3C     C1 3892   1.437   2.094   1.175
  170I3C     C2 3893   1.319   1.901   1.090
  170I3C     C3 3894   1.505   1.870   1.245
  170I3C     C4 3895   1.338   2.039   1.092
  170I3C     C5 3896   1.519   2.010   1.250
  170I3C     C6 3897   1.211   1.839   1.004
  170I3C     C7 3898   1.453   2.243   1.184
  170I3C     O0 3899   1.257   1.796   0.891
  170I3C     O1 3900   1.544   2.303   1.130
  170I3C     O2 3901   1.095   1.832   1.040
  170I3C     O3 3902   1.361   2.300   1.258
  170I3C     O4 3903   1.362   0.969   1.274
  170I3C     H0 3904   1.201   1.748   0.855
  170I3C     H1 3905   1.377   2.380   1.265
  170I3C     H2 3906   1.577   1.701   1.317
  170I3C     H3 3907   1.654   1.820   1.365
  170I3C     H4 3908   1.305   0.976   1.337
  170I3C     H5 3909   1.325   0.995   1.202
  170I3C     N0 3910   1.589   1.786   1.318
  171I3C     I0 3911   1.658   2.095   3.283
  171I3C     I1 3912   1.358   1.613   3.075
  171I3C     I2 3913   1.223   2.164   2.867
  171I3C     C0 3914   1.399   1.819   3.067
  171I3C     C1 3915   1.437   2.094   3.074
  171I3C     C2 3916   1.319   1.901   2.989
  171I3C     C3 3917   1.505   1.870   3.144
  171I3C     C4 3918   1.338   2.039   2.991
  171I3C     C5 3919   1.519   2.010   3.150
  171I3C     C6 3920   1.211   1.839   2.904
  171I3C     C7 3921   1.453   2.243   3.084
  171I3C     O0 3922   1.257   1.796   2.790
  171I3C     O1 3923   1.544   2.303   3.030
  171I3C     O2 3924   1.095   1.832   2.939
  171I3C     O3 3925   1.361   2.300   3.158
  171I3C     O4 3926   1.362   0.969   3.173
  171I3C     H0 3927   1.201   1.748   2.754
  171I3C     H1 3928   1.377   2.380   3.164
  171I3C     H2 3929   1.577   1.701   3.217
  171I3C     H3 3930   1.654   1.820   3.264
  171I3C     H4 3931   1.305   0.976   3.237
  171I3C     H5 3932   1.325   0.995   3.101
  171I3C     N0 3933   1.589   1.786   3.218
  172I3C     I0 3934  -0.203   3.681  -0.516
  172I3C     I1 3935  -0.503   3.199  -0.723
  172I3C     I2 3936  -0.638   3.750  -0.931
  172I3C     C0 3937  -0.462   3.405  -0.731
  172I3C     C1 3938  -0.424   3.681  -0.724
  172I3C     C2 3939  -0.542   3.488  -0.809
  172I3C     C3 3940  -0.356   3.456  -0.655
  172I3C     C4 3941  -0.523   3.625  -0.807
  172I3C     C5 3942  -0.342   3.596  -0.649
  172I3C     C6 3943  -0.650   3.425  -0.895
  172I3C     C7 3944  -0.408   3.830  -0.715
  172I3C     O0 3945  -0.604   3.383  -1.008
  172I3C     O1 3946  -0.317   3.889  -0.769
  172I3C     O2 3947  -0.766   3.418  -0.859
  172I3C     O3 3948  -0.500   3.886  -0.641
  172I3C     O4 3949  -0.499   2.556  -0.625
  172I3C     H0 3950  -0.660   3.335  -1.044
  172I3C     H1 3951  -0.484   3.966  -0.635
  172I3C     H2 3952  -0.284   3.287  -0.582
  172I3C     H3 3953  -0.207   3.406  -0.535
  172I3C     H4 3954  -0.556   2.562  -0.562
  172I3C     H5 3955  -0.535   2.582  -0.698
  172I3C     N0 3956  -0.272   3.372  -0.581
  173I3C     I0 3957  -0.203   3.681   1.383
  173I3C     I1 3958  -0.503   3.199   1.176
  173I3C     I2 3959  -0.638   3.750   0.968
  173I3C     C0 3960  -0.462   3.405   1.168
  173I3C     C1 3961  -0.424   3.681   1.175
  173I3C     C2 3962  -0.542   3.488   1.090
  173I3C     C3 3963  -0.356   3.456   1.245
  173I3C     C4 3964  -0.523   3.625   1.092
  173I3C     C5 3965  -0.342   3.596   1.250
  173I3C     C6 3966  -0.650   3.425   1.004
  173I3C     C7 3967  -0.408   3.830   1.184
  173I3C     O0 3968  -0.604   3.383   0.891
  173I3C     O1 3969  -0.317   3.889   1.130
  173I3C     O2 3970  -0.766   3.418   1.040
  173I3C     O3 3971  -0.500   3.886   1.258
  173I3C     O4 3972  -0.499   2.556   1.274
  173I3C     H0 3973  -0.660   3.335   0.855
  173I3C     H1 3974  -0.484   3.966   1.265
  173I3C     H2 3975  -0.284   3.287   1.317
  173I3C     H3 3976  -0.207   3.406   1.365
  173I3C     H4 3977  -0.556   2.562   1.337
  173I3C     H5 3978  -0.535   2.582   1.202
  173I3C     N0 3979  -0.272   3.372   1.318
  174I3C     I0 3980  -0.203   3.681   3.283
  174I3C     I1 3981  -0.503   3.199   3.075
  174I3C     I2 3982  -0.638   3.750   2.867
  174I3C     C0 3983  -0.462   3.405   3.067
  174I3C     C1 3984  -0.424   3.681   3.074
  174I3C     C2 3985  -0.542   3.488   2.989
  174I3C     C3 3986  -0.356   3.456   3.144
  174I3C     C4 3987  -0.523   3.625   2.991
  174I3C     C5 3988  -0.342   3.596   3.150
  174I3C     C6 3989  -0.650   3.425   2.904
  174I3C     C7 3990  -0.408   3.830   3.084
  174I3C     O0 3991  -0.604   3.383   2.790
  174I3C     O1 3992  -0.317   3.889   3.030
  174I3C     O2 3993  -0.766   3.418   2.939
  174I3C     O3 3994  -0.500   3.886   3.158
  174I3C     O4 3995  -0.499   2.556   3.173
  174I3C     H0 3996  -0.660   3.335   2.754
  174I3C     H1 3997  -0.484   3.966   3.164
  174I3C     H2 3998  -0.284   3.287   3.217
  174I3C     H3 3999  -0.207   3.406   3.264
  174I3C     H4 4000  -0.556   2.562   3.237
  174I3C     H5 4001  -0.535   2.582   3.101
  174I3C     N0 4002  -0.272   3.372   3.218
  175I3C     I0 4003   0.727   3.681  -0.516
  175I3C     I1 4004   0.428   3.199  -0.723
  175I3C     I2 4005   0.293   3.750  -0.931
  175I3C     C0 4006   0.469   3.405  -0.731
  175I3C     C1 4007   0.506   3.681  -0.724
  175I3C     C2 4008   0.388   3.488  -0.809
  175I3C     C3 4009   0.575   3.456  -0.655
  175I3C     C4 4010   0.407   3.625  -0.807
  175I3C     C5 4011   0.588   3.596  -0.649
  175I3C     C6 4012   0.280   3.425  -0.895
  175I3C     C7 4013   0.523   3.830  -0.715
  175I3C     O0 4014   0.326   3.383  -1.008
  175I3C     O1 4015   0.614   3.889  -0.769
  175I3C     O2 4016   0.165   3.418  -0.859
  175I3C     O3 4017   0.431   3.886  -0.641
  175I3C     O4 4018   0.431   2.556  -0.625
  175I3C     H0 4019   0.270   3.335  -1.044
  175I3C     H1 4020   0.446   3.966  -0.635
  175I3C     H2 4021   0.646   3.287  -0.582
  175I3C     H3 4022   0.723   3.406  -0.535
  175I3C     H4 4023   0.374   2.562  -0.562
  175I3C     H5 4024   0.395   2.582  -0.698
  175I3C     N0 4025   0.659   3.372  -0.581
  176I3C     I0 4026   0.727   3.681   1.383
  176I3C     I1 4027   0.428   3.199   1.176
  176I3C     I2 4028   0.293   3.750   0.968
  176I3C     C0 4029   0.469   3.405   1.168
  176I3C     C1 4030   0.506   3.681   1.175
  176I3C     C2 4031   0.388   3.488   1.090
  176I3C     C3 4032   0.575   3.456   1.245
  176I3C     C4 4033   0.407   3.625   1.092
  176I3C     C5 4034   0.588   3.596   1.250
  176I3C     C6 4035   0.280   3.425   1.004
  176I3C     C7 4036   0.523   3.830   1.184
  176I3C     O0 4037   0.326   3.383   0.891
  176I3C     O1 4038   0.614   3.889   1.130
  176I3C     O2 4039   0.165   3.418   1.040
  176I3C     O3 4040   0.431   3.886   1.258
  176I3C     O4 4041   0.431   2.556   1.274
  176I3C     H0 4042   0.270   3.335   0.855
  176I3C     H1 4043   0.446   3.966   1.265
  176I3C     H2 4044   0.646   3.287   1.317
  176I3C     H3 4045   0.723   3.406   1.365
  176I3C     H4 4046   0.374   2.562   1.337
  176I3C     H5 4047   0.395   2.582   1.202
  176I3C     N0 4048   0.659   3.372   1.318
  177I3C     I0 4049   0.727   3.681   3.283
  177I3C     I1 4050   0.428   3.199   3.075
  177I3C     I2 4051   0.293   3.750   2.867
  177I3C     C0 4052   0.469   3.405   3.067
  177I3C     C1 4053   0.506   3.681   3.074
  177I3C     C2 4054   0.388   3.488   2.989
  177I3C     C3 4055   0.575   3.456   3.144
  177I3C     C4 4056   0.407   3.625   2.991
  177I3C     C5 4057   0.588   3.596   3.150
  177I3C     C6 4058   0.280   3.425   2.904
  177I3C     C7 4059   0.523   3.830   3.084
  177I3C     O0 4060   0.326   3.383   2.790
  177I3C     O1 4061   0.614   3.889   3.030
  177I3C     O2 4062   0.165   3.418   2.939
  177I3C     O3 4063   0.431   3.886   3.158
  177I3C     O4 4064   0.431   2.556   3.173
  177I3C     H0 4065   0.270   3.335   2.754
  177I3C     H1 4066   0.446   3.966   3.164
  177I3C     H2 4067   0.646   3.287   3.217
  177I3C     H3 4068   0.723   3.406   3.264
  177I3C     H4 4069   0.374   2.562   3.237
  177I3C     H5 4070   0.395   2.582   3.101
  177I3C     N0 4071   0.659   3.372   3.218
  178I3C     I0 4072   1.658   3.681  -0.516
  178I3C     I1 4073   1.358   3.199  -0.723
  178I3C     I2 4074   1.223   3.750  -0.931
  178I3C     C0 4075   1.399   3.405  -0.731
  178I3C     C1 4076   1.437   3.681  -0.724
  178I3C     C2 4077   1.319   3.488  -0.809
  178I3C     C3 4078   1.505   3.456  -0.655
  178I3C     C4 4079   1.338   3.625  -0.807
  178I3C     C5 4080   1.519   3.596  -0.649
  178I3C     C6 4081   1.211   3.425  -0.895
  178I3C     C7 4082   1.453   3.830  -0.715
  178I3C     O0 4083   1.257   3.383  -1.008
  178I3C     O1 4084   1.544   3.889  -0.769
  178I3C     O2 4085   1.095   3.418  -0.859
  178I3C     O3 4086   1.361   3.886  -0.641
  178I3C     O4 4087   1.362   2.556  -0.625
  178I3C     H0 4088   1.201   3.335  -1.044
  178I3C     H1 4089   1.377   3.966  -0.635
  178I3C     H2 4090   1.577   3.287  -0.582
  178I3C     H3 4091   1.654   3.406  -0.535
  178I3C     H4 4092   1.305   2.562  -0.562
  178I3C     H5 4093   1.325   2.582  -0.698
  178I3C     N0 4094   1.589   3.372  -0.581
  179I3C     I0 4095   1.658   3.681   1.383
  179I3C     I1 4096   1.358   3.199   1.176
  179I3C     I2 4097   1.223   3.750   0.968
  179I3C     C0 4098   1.399   3.405   1.168
  179I3C     C1 4099   1.437   3.681   1.175
  179I3C     C2 4100   1.319   3.488   1.090
  179I3C     C3 4101   1.505   3.456   1.245
  179I3C     C4 4102   1.338   3.625   1.092
  179I3C     C5 4103   1.519   3.596   1.250
  179I3C     C6 4104   1.211   3.425   1.004
  179I3C     C7 4105   1.453   3.830   1.184
  179I3C     O0 4106   1.257   3.383   0.891
  179I3C     O1 4107   1.544   3.889   1.130
  179I3C     O2 4108   1.095   3.418   1.040
  179I3C     O3 4109   1.361   3.886   1.258
  179I3C     O4 4110   1.362   2.556   1.274
  179I3C     H0 4111   1.201   3.335   0.855
  179I3C     H1 4112   1.377   3.966   1.265
  179I3C     H2 4113   1.577   3.287   1.317
  179I3C     H3 4114   1.654   3.406   1.365
  179I3C     H4 4115   1.305   2.562   1.337
  179I3C     H5 4116   1.325   2.582   1.202
  179I3C     N0 4117   1.589   3.372   1.318
  180I3C     I0 4118   1.658   3.681   3.283
  180I3C     I1 4119   1.358   3.199   3.075
  180I3C     I2 4120   1.223   3.750   2.867
  180I3C     C0 4121   1.399   3.405   3.067
  180I3C     C1 4122   1.437   3.681   3.074
  180I3C     C2 4123   1.319   3.488   2.989
  180I3C     C3 4124   1.505   3.456   3.144
  180I3C     C4 4125   1.338   3.625   2.991
  180I3C     C5 4126   1.519   3.596   3.150
  180I3C     C6 4127   1.211   3.425   2.904
  180I3C     C7 4128   1.453   3.830   3.084
  180I3C     O0 4129   1.257   3.383   2.790
  180I3C     O1 4130   1.544   3.889   3.030
  180I3C     O2 4131   1.095   3.418   2.939
  180I3C     O3 4132   1.361   3.886   3.158
  180I3C     O4 4133   1.362   2.556   3.173
  180I3C     H0 4134   1.201   3.335   2.754
  180I3C     H1 4135   1.377   3.966   3.164
  180I3C     H2 4136   1.577   3.287   3.217
  180I3C     H3 4137   1.654   3.406   3.264
  180I3C     H4 4138   1.305   2.562   3.237
  180I3C     H5 4139   1.325   2.582   3.101
  180I3C     N0 4140   1.589   3.372   3.218
  181I3C     I0 4141  -0.203   5.267  -0.516
  181I3C     I1 4142  -0.503   4.785  -0.723
  181I3C     I2 4143  -0.638   5.336  -0.931
  181I3C     C0 4144  -0.462   4.991  -0.731
  181I3C     C1 4145  -0.424   5.267  -0.724
  181I3C     C2 4146  -0.542   5.074  -0.809
  181I3C     C3 4147  -0.356   5.043  -0.655
  181I3C     C4 4148  -0.523   5.212  -0.807
  181I3C     C5 4149  -0.342   5.183  -0.649
  181I3C     C6 4150  -0.650   5.012  -0.895
  181I3C     C7 4151  -0.408   5.416  -0.715
  181I3C     O0 4152  -0.604   4.969  -1.008
  181I3C     O1 4153  -0.317   5.475  -0.769
  181I3C     O2 4154  -0.766   5.004  -0.859
  181I3C     O3 4155  -0.500   5.472  -0.641
  181I3C     O4 4156  -0.499   4.142  -0.625
  181I3C     H0 4157  -0.660   4.921  -1.044
  181I3C     H1 4158  -0.484   5.552  -0.635
  181I3C     H2 4159  -0.284   4.873  -0.582
  181I3C     H3 4160  -0.207   4.992  -0.535
  181I3C     H4 4161  -0.556   4.149  -0.562
  181I3C     H5 4162  -0.535   4.168  -0.698
  181I3C     N0 4163  -0.272   4.959  -0.581
  182I3C     I0 4164  -0.203   5.267   1.383
  182I3C     I1 4165  -0.503   4.785   1.176
  182I3C     I2 4166  -0.638   5.336   0.968
  182I3C     C0 4167  -0.462   4.991   1.168
  182I3C     C1 4168  -0.424   5.267   1.175
  182I3C     C2 4169  -0.542   5.074   1.090
  182I3C     C3 4170  -0.356   5.043   1.245
  182I3C     C4 4171  -0.523   5.212   1.092
  182I3C     C5 4172  -0.342   5.183   1.250
  182I3C     C6 4173  -0.650   5.012   1.004
  182I3C     C7 4174  -0.408   5.416   1.184
  182I3C     O0 4175  -0.604   4.969   0.891
  182I3C     O1 4176  -0.317   5.475   1.130
  182I3C     O2 4177  -0.766   5.004   1.040
  182I3C     O3 4178  -0.500   5.472   1.258
  182I3C     O4 4179  -0.499   4.142   1.274
  182I3C     H0 4180  -0.660   4.921   0.855
  182I3C     H1 4181  -0.484   5.552   1.265
  182I3C     H2 4182  -0.284   4.873   1.317
  182I3C     H3 4183  -0.207   4.992   1.365
  182I3C     H4 4184  -0.556   4.149   1.337
  182I3C     H5 4185  -0.535   4.168   1.202
  182I3C     N0 4186  -0.272   4.959   1.318
  183I3C     I0 4187  -0.203   5.267   3.283
  183I3C     I1 4188  -0.503   4.785   3.075
  183I3C     I2 4189  -0.638   5.336   2.867
  183I3C     C0 4190  -0.462   4.991   3.067
  183I3C     C1 4191  -0.424   5.267   3.074
  183I3C     C2 4192  -0.542   5.074   2.989
  183I3C     C3 4193  -0.356   5.043   3.144
  183I3C     C4 4194  -0.523   5.212   2.991
  183I3C     C5 4195  -0.342   5.183   3.150
  183I3C     C6 4196  -0.650   5.012   2.904
  183I3C     C7 4197  -0.408   5.416   3.084
  183I3C     O0 4198  -0.604   4.969   2.790
  183I3C     O1 4199  -0.317   5.475   3.030
  183I3C     O2 4200  -0.766   5.004   2.939
  183I3C     O3 4201  -0.500   5.472   3.158
  183I3C     O4 4202  -0.499   4.142   3.173
  183I3C     H0 4203  -0.660   4.921   2.754
  183I3C     H1 4204  -0.484   5.552   3.164
  183I3C     H2 4205  -0.284   4.873   3.217
  183I3C     H3 4206  -0.207   4.992   3.264
  183I3C     H4 4207  -0.556   4.149   3.237
  183I3C     H5 4208  -0.535   4.168   3.101
  183I3C     N0 4209  -0.272   4.959   3.218
  184I3C     I0 4210   0.727   5.267  -0.516
  184I3C     I1 4211   0.428   4.785  -0.723
  184I3C     I2 4212   0.293   5.336  -0.931
  184I3C     C0 4213   0.469   4.991  -0.731
  184I3C     C1 4214   0.506   5.267  -0.724
  184I3C     C2 4215   0.388   5.074  -0.809
  184I3C     C3 4216   0.575   5.043  -0.655
  184I3C     C4 4217   0.407   5.212  -0.807
  184I3C     C5 4218   0.588   5.183  -0.649
  184I3C     C6 4219   0.280   5.012  -0.895
  184I3C     C7 4220   0.523   5.416  -0.715
  184I3C     O0 4221   0.326   4.969  -1.008
  184I3C     O1 4222   0.614   5.475  -0.769
  184I3C     O2 4223   0.165   5.004  -0.859
  184I3C     O3 4224   0.431   5.472  -0.641
  184I3C     O4 4225   0.431   4.142  -0.625
  184I3C     H0 4226   0.270   4.921  -1.044
  184I3C     H1 4227   0.446   5.552  -0.635
  184I3C     H2 4228   0.646   4.873  -0.582
  184I3C     H3 4229   0.723   4.992  -0.535
  184I3C     H4 4230   0.374   4.149  -0.562
  184I3C     H5 4231   0.395   4.168  -0.698
  184I3C     N0 4232   0.659   4.959  -0.581
  185I3C     I0 4233   0.727   5.267   1.383
  185I3C     I1 4234   0.428   4.785   1.176
  185I3C     I2 4235   0.293   5.336   0.968
  185I3C     C0 4236   0.469   4.991   1.168
  185I3C     C1 4237   0.506   5.267   1.175
  185I3C     C2 4238   0.388   5.074   1.090
  185I3C     C3 4239   0.575   5.043   1.245
  185I3C     C4 4240   0.407   5.212   1.092
  185I3C     C5 4241   0.588   5.183   1.250
  185I3C     C6 4242   0.280   5.012   1.004
  185I3C     C7 4243   0.523   5.416   1.184
  185I3C     O0 4244   0.326   4.969   0.891
  185I3C     O1 4245   0.614   5.475   1.130
  185I3C     O2 4246   0.165   5.004   1.040
  185I3C     O3 4247   0.431   5.472   1.258
  185I3C     O4 4248   0.431   4.142   1.274
  185I3C     H0 4249   0.270   4.921   0.855
  185I3C     H1 4250   0.446   5.552   1.265
  185I3C     H2 4251   0.646   4.873   1.317
  185I3C     H3 4252   0.723   4.992   1.365
  185I3C     H4 4253   0.374   4.149   1.337
  185I3C     H5 4254   0.395   4.168   1.202
  185I3C     N0 4255   0.659   4.959   1.318
  186I3C     I0 4256   0.727   5.267   3.283
  186I3C     I1 4257   0.428   4.785   3.075
  186I3C     I2 4258   0.293   5.336   2.867
  186I3C     C0 4259   0.469   4.991   3.067
  186I3C     C1 4260   0.506   5.267   3.074
  186I3C     C2 4261   0.388   5.074   2.989
  186I3C     C3 4262   0.575   5.043   3.144
  186I3C     C4 4263   0.407   5.212   2.991
  186I3C     C5 4264   0.588   5.183   3.150
  186I3C     C6 4265   0.280   5.012   2.904
  186I3C     C7 4266   0.523   5.416   3.084
  186I3C     O0 4267   0.326   4.969   2.790
  186I3C     O1 4268   0.614   5.475   3.030
  186I3C     O2 4269   0.165   5.004   2.939
  186I3C     O3 4270   0.431   5.472   3.158
  186I3C     O4 4271   0.431   4.142   3.173
  186I3C     H0 4272   0.270   4.921   2.754
  186I3C     H1 4273   0.446   5.552   3.164
  186I3C     H2 4274   0.646   4.873   3.217
  186I3C     H3 4275   0.723   4.992   3.264
  186I3C     H4 4276   0.374   4.149   3.237
  186I3C     H5 4277   0.395   4.168   3.101
  186I3C     N0 4278   0.659   4.959   3.218
  187I3C     I0 4279   1.658   5.267  -0.516
  187I3C     I1 4280   1.358   4.785  -0.723
  187I3C     I2 4281   1.223   5.336  -0.931
  187I3C     C0 4282   1.399   4.991  -0.731
  187I3C     C1 4283   1.437   5.267  -0.724
  187I3C     C2 4284   1.319   5.074  -0.809
  187I3C     C3 4285   1.505   5.043  -0.655
  187I3C     C4 4286   1.338   5.212  -0.807
  187I3C     C5 4287   1.519   5.183  -0.649
  187I3C     C6 4288   1.211   5.012  -0.895
  187I3C     C7 4289   1.453   5.416  -0.715
  187I3C     O0 4290   1.257   4.969  -1.008
  187I3C     O1 4291   1.544   5.475  -0.769
  187I3C     O2 4292   1.095   5.004  -0.859
  187I3C     O3 4293   1.361   5.472  -0.641
  187I3C     O4 4294   1.362   4.142  -0.625
  187I3C     H0 4295   1.201   4.921  -1.044
  187I3C     H1 4296   1.377   5.552  -0.635
  187I3C     H2 4297   1.577   4.873  -0.582
  187I3C     H3 4298   1.654   4.992  -0.535
  187I3C     H4 4299   1.305   4.149  -0.562
  187I3C     H5 4300   1.325   4.168  -0.698
  187I3C     N0 4301   1.589   4.959  -0.581
  188I3C     I0 4302   1.658   5.267   1.383
  188I3C     I1 4303   1.358   4.785   1.176
  188I3C     I2 4304   1.223   5.336   0.968
  188I3C     C0 4305   1.399   4.991   1.168
  188I3C     C1 4306   1.437   5.267   1.175
  188I3C     C2 4307   1.319   5.074   1.090
  188I3C     C3 4308   1.505   5.043   1.245
  188I3C     C4 4309   1.338   5.212   1.092
  188I3C     C5 4310   1.519   5.183   1.250
  188I3C     C6 4311   1.211   5.012   1.004
  188I3C     C7 4312   1.453   5.416   1.184
  188I3C     O0 4313   1.257   4.969   0.891
  188I3C     O1 4314   1.544   5.475   1.130
  188I3C     O2 4315   1.095   5.004   1.040
  188I3C     O3 4316   1.361   5.472   1.258
  188I3C     O4 4317   1.362   4.142   1.274
  188I3C     H0 4318   1.201   4.921   0.855
  188I3C     H1 4319   1.377   5.552   1.265
  188I3C     H2 4320   1.577   4.873   1.317
  188I3C     H3 4321   1.654   4.992   1.365
  188I3C     H4 4322   1.305   4.149   1.337
  188I3C     H5 4323   1.325   4.168   1.202
  188I3C     N0 4324   1.589   4.959   1.318
  189I3C     I0 4325   1.658   5.267   3.283
  189I3C     I1 4326   1.358   4.785   3.075
  189I3C     I2 4327   1.223   5.336   2.867
  189I3C     C0 4328   1.399   4.991   3.067
  189I3C     C1 4329   1.437   5.267   3.074
  189I3C     C2 4330   1.319   5.074   2.989
  189I3C     C3 4331   1.505   5.043   3.144
  189I3C     C4 4332   1.338   5.212   2.991
  189I3C     C5 4333   1.519   5.183   3.150
  189I3C     C6 4334   1.211   5.012   2.904
  189I3C     C7 4335   1.453   5.416   3.084
  189I3C     O0 4336   1.257   4.969   2.790
  189I3C     O1 4337   1.544   5.475   3.030
  189I3C     O2 4338   1.095   5.004   2.939
  189I3C     O3 4339   1.361   5.472   3.158
  189I3C     O4 4340   1.362   4.142   3.173
  189I3C     H0 4341   1.201   4.921   2.754
  189I3C     H1 4342   1.377   5.552   3.164
  189I3C     H2 4343   1.577   4.873   3.217
  189I3C     H3 4344   1.654   4.992   3.264
  189I3C     H4 4345   1.305   4.149   3.237
  189I3C     H5 4346   1.325   4.168   3.101
  189I3C     N0 4347   1.589   4.959   3.218
  190I3C     I0 4348   0.258  -1.308   2.398
  190I3C     I1 4349  -0.042  -0.826   2.605
  190I3C     I2 4350  -0.177  -1.377   2.813
  190I3C     C0 4351  -0.001  -1.032   2.613
  190I3C     C1 4352   0.036  -1.308   2.606
  190I3C     C2 4353  -0.082  -1.115   2.691
  190I3C     C3 4354   0.105  -1.083   2.536
  190I3C     C4 4355  -0.062  -1.252   2.689
  190I3C     C5 4356   0.119  -1.224   2.530
  190I3C     C6 4357  -0.190  -1.053   2.776
  190I3C     C7 4358   0.053  -1.457   2.596
  190I3C     O0 4359  -0.143  -1.010   2.890
  190I3C     O1 4360   0.144  -1.516   2.651
  190I3C     O2 4361  -0.305  -1.045   2.741
  190I3C     O3 4362  -0.039  -1.513   2.523
  190I3C     O4 4363  -0.038  -0.183   2.507
  190I3C     H0 4364  -0.199  -0.962   2.926
  190I3C     H1 4365  -0.024  -1.593   2.516
  190I3C     H2 4366   0.176  -0.914   2.463
  190I3C     H3 4367   0.254  -1.033   2.416
  190I3C     H4 4368  -0.095  -0.189   2.444
  190I3C     H5 4369  -0.075  -0.209   2.579
  190I3C     N0 4370   0.189  -0.999   2.463
  191I3C     I0 4371   0.258  -1.308   4.297
  191I3C     I1 4372  -0.042  -0.826   4.504
  191I3C     I2 4373  -0.177  -1.377   4.712
  191I3C     C0 4374  -0.001  -1.032   4.512
  191I3C     C1 4375   0.036  -1.308   4.505
  191I3C     C2 4376  -0.082  -1.115   4.590
  191I3C     C3 4377   0.105  -1.083   4.435
  191I3C     C4 4378  -0.062  -1.252   4.588
  191I3C     C5 4379   0.119  -1.224   4.430
  191I3C     C6 4380  -0.190  -1.053   4.676
  191I3C     C7 4381   0.053  -1.457   4.496
  191I3C     O0 4382  -0.143  -1.010   4.789
  191I3C     O1 4383   0.144  -1.516   4.550
  191I3C     O2 4384  -0.305  -1.045   4.640
  191I3C     O3 4385  -0.039  -1.513   4.422
  191I3C     O4 4386  -0.038  -0.183   4.406
  191I3C     H0 4387  -0.199  -0.962   4.825
  191I3C     H1 4388  -0.024  -1.593   4.415
  191I3C     H2 4389   0.176  -0.914   4.363
  191I3C     H3 4390   0.254  -1.033   4.315
  191I3C     H4 4391  -0.095  -0.189   4.343
  191I3C     H5 4392  -0.075  -0.209   4.478
  191I3C     N0 4393   0.189  -0.999   4.362
  192I3C     I0 4394   0.258  -1.308   6.196
  192I3C     I1 4395  -0.042  -0.826   6.403
  192I3C     I2 4396  -0.177  -1.377   6.611
  192I3C     C0 4397  -0.001  -1.032   6.411
  192I3C     C1 4398   0.036  -1.308   6.404
  192I3C     C2 4399  -0.082  -1.115   6.489
  192I3C     C3 4400   0.105  -1.083   6.335
  192I3C     C4 4401  -0.062  -1.252   6.487
  192I3C     C5 4402   0.119  -1.224   6.329
  192I3C     C6 4403  -0.190  -1.053   6.575
  192I3C     C7 4404   0.053  -1.457   6.395
  192I3C     O0 4405  -0.143  -1.010   6.688
  192I3C     O1 4406   0.144  -1.516   6.449
  192I3C     O2 4407  -0.305  -1.045   6.539
  192I3C     O3 4408  -0.039  -1.513   6.321
  192I3C     O4 4409  -0.038  -0.183   6.305
  192I3C     H0 4410  -0.199  -0.962   6.725
  192I3C     H1 4411  -0.024  -1.593   6.315
  192I3C     H2 4412   0.176  -0.914   6.262
  192I3C     H3 4413   0.254  -1.033   6.215
  192I3C     H4 4414  -0.095  -0.189   6.242
  192I3C     H5 4415  -0.075  -0.209   6.378
  192I3C     N0 4416   0.189  -0.999   6.261
  193I3C     I0 4417   1.188  -1.308   2.398
  193I3C     I1 4418   0.888  -0.826   2.605
  193I3C     I2 4419   0.753  -1.377   2.813
  193I3C     C0 4420   0.929  -1.032   2.613
  193I3C     C1 4421   0.967  -1.308   2.606
  193I3C     C2 4422   0.849  -1.115   2.691
  193I3C     C3 4423   1.036  -1.083   2.536
  193I3C     C4 4424   0.868  -1.252   2.689
  193I3C     C5 4425   1.049  -1.224   2.530
  193I3C     C6 4426   0.741  -1.053   2.776
  193I3C     C7 4427   0.983  -1.457   2.596
  193I3C     O0 4428   0.787  -1.010   2.890
  193I3C     O1 4429   1.075  -1.516   2.651
  193I3C     O2 4430   0.625  -1.045   2.741
  193I3C     O3 4431   0.891  -1.513   2.523
  193I3C     O4 4432   0.892  -0.183   2.507
  193I3C     H0 4433   0.731  -0.962   2.926
  193I3C     H1 4434   0.907  -1.593   2.516
  193I3C     H2 4435   1.107  -0.914   2.463
  193I3C     H3 4436   1.184  -1.033   2.416
  193I3C     H4 4437   0.835  -0.189   2.444
  193I3C     H5 4438   0.856  -0.209   2.579
  193I3C     N0 4439   1.120  -0.999   2.463
  194I3C     I0 4440   1.188  -1.308   4.297
  194I3C     I1 4441   0.888  -0.826   4.504
  194I3C     I2 4442   0.753  -1.377   4.712
  194I3C     C0 4443   0.929  -1.032   4.512
  194I3C     C1 4444   0.967  -1.308   4.505
  194I3C     C2 4445   0.849  -1.115   4.590
  194I3C     C3 4446   1.036  -1.083   4.435
  194I3C     C4 4447   0.868  -1.252   4.588
  194I3C     C5 4448   1.049  -1.224   4.430
  194I3C     C6 4449   0.741  -1.053   4.676
  194I3C     C7 4450   0.983  -1.457   4.496
  194I3C     O0 4451   0.787  -1.010   4.789
  194I3C     O1 4452   1.075  -1.516   4.550
  194I3C     O2 4453   0.625  -1.045   4.640
  194I3C     O3 4454   0.891  -1.513   4.422
  194I3C     O4 4455   0.892  -0.183   4.406
  194I3C     H0 4456   0.731  -0.962   4.825
  194I3C     H1 4457   0.907  -1.593   4.415
  194I3C     H2 4458   1.107  -0.914   4.363
  194I3C     H3 4459   1.184  -1.033   4.315
  194I3C     H4 4460   0.835  -0.189   4.343
  194I3C     H5 4461   0.856  -0.209   4.478
  194I3C     N0 4462   1.120  -0.999   4.362
  195I3C     I0 4463   1.188  -1.308   6.196
  195I3C     I1 4464   0.888  -0.826   6.403
  195I3C     I2 4465   0.753  -1.377   6.611
  195I3C     C0 4466   0.929  -1.032   6.411
  195I3C     C1 4467   0.967  -1.308   6.404
  195I3C     C2 4468   0.849  -1.115   6.489
  195I3C     C3 4469   1.036  -1.083   6.335
  195I3C     C4 4470   0.868  -1.252   6.487
  195I3C     C5 4471   1.049  -1.224   6.329
  195I3C     C6 4472   0.741  -1.053   6.575
  195I3C     C7 4473   0.983  -1.457   6.395
  195I3C     O0 4474   0.787  -1.010   6.688
  195I3C     O1 4475   1.075  -1.516   6.449
  195I3C     O2 4476   0.625  -1.045   6.539
  195I3C     O3 4477   0.891  -1.513   6.321
  195I3C     O4 4478   0.892  -0.183   6.305
  195I3C     H0 4479   0.731  -0.962   6.725
  195I3C     H1 4480   0.907  -1.593   6.315
  195I3C     H2 4481   1.107  -0.914   6.262
  195I3C     H3 4482   1.184  -1.033   6.215
  195I3C     H4 4483   0.835  -0.189   6.242
  195I3C     H5 4484   0.856  -0.209   6.378
  195I3C     N0 4485   1.120  -0.999   6.261
  196I3C     I0 4486   2.119  -1.308   2.398
  196I3C     I1 4487   1.819  -0.826   2.605
  196I3C     I2 4488   1.684  -1.377   2.813
  196I3C     C0 4489   1.860  -1.032   2.613
  196I3C     C1 4490   1.897  -1.308   2.606
  196I3C     C2 4491   1.779  -1.115   2.691
  196I3C     C3 4492   1.966  -1.083   2.536
  196I3C     C4 4493   1.799  -1.252   2.689
  196I3C     C5 4494   1.980  -1.224   2.530
  196I3C     C6 4495   1.671  -1.053   2.776
  196I3C     C7 4496   1.914  -1.457   2.596
  196I3C     O0 4497   1.718  -1.010   2.890
  196I3C     O1 4498   2.005  -1.516   2.651
  196I3C     O2 4499   1.556  -1.045   2.741
  196I3C     O3 4500   1.822  -1.513   2.523
  196I3C     O4 4501   1.823  -0.183   2.507
  196I3C     H0 4502   1.662  -0.962   2.926
  196I3C     H1 4503   1.837  -1.593   2.516
  196I3C     H2 4504   2.037  -0.914   2.463
  196I3C     H3 4505   2.114  -1.033   2.416
  196I3C     H4 4506   1.765  -0.189   2.444
  196I3C     H5 4507   1.786  -0.209   2.579
  196I3C     N0 4508   2.050  -0.999   2.463
  197I3C     I0 4509   2.119  -1.308   4.297
  197I3C     I1 4510   1.819  -0.826   4.504
  197I3C     I2 4511   1.684  -1.377   4.712
  197I3C     C0 4512   1.860  -1.032   4.512
  197I3C     C1 4513   1.897  -1.308   4.505
  197I3C     C2 4514   1.779  -1.115   4.590
  197I3C     C3 4515   1.966  -1.083   4.435
  197I3C     C4 4516   1.799  -1.252   4.588
  197I3C     C5 4517   1.980  -1.224   4.430
  197I3C     C6 4518   1.671  -1.053   4.676
  197I3C     C7 4519   1.914  -1.457   4.496
  197I3C     O0 4520   1.718  -1.010   4.789
  197I3C     O1 4521   2.005  -1.516   4.550
  197I3C     O2 4522   1.556  -1.045   4.640
  197I3C     O3 4523   1.822  -1.513   4.422
  197I3C     O4 4524   1.823  -0.183   4.406
  197I3C     H0 4525   1.662  -0.962   4.825
  197I3C     H1 4526   1.837  -1.593   4.415
  197I3C     H2 4527   2.037  -0.914   4.363
  197I3C     H3 4528   2.114  -1.033   4.315
  197I3C     H4 4529   1.765  -0.189   4.343
  197I3C     H5 4530   1.786  -0.209   4.478
  197I3C     N0 4531   2.050  -0.999   4.362
  198I3C     I0 4532   2.119  -1.308   6.196
  198I3C     I1 4533   1.819  -0.826   6.403
  198I3C     I2 4534   1.684  -1.377   6.611
  198I3C     C0 4535   1.860  -1.032   6.411
  198I3C     C1 4536   1.897  -1.308   6.404
  198I3C     C2 4537   1.779  -1.115   6.489
  198I3C     C3 4538   1.966  -1.083   6.335
  198I3C     C4 4539   1.799  -1.252   6.487
  198I3C     C5 4540   1.980  -1.224   6.329
  198I3C     C6 4541   1.671  -1.053   6.575
  198I3C     C7 4542   1.914  -1.457   6.395
  198I3C     O0 4543   1.718  -1.010   6.688
  198I3C     O1 4544   2.005  -1.516   6.449
  198I3C     O2 4545   1.556  -1.045   6.539
  198I3C     O3 4546   1.822  -1.513   6.321
  198I3C     O4 4547   1.823  -0.183   6.305
  198I3C     H0 4548   1.662  -0.962   6.725
  198I3C     H1 4549   1.837  -1.593   6.315
  198I3C     H2 4550   2.037  -0.914   6.262
  198I3C     H3 4551   2.114  -1.033   6.215
  198I3C     H4 4552   1.765  -0.189   6.242
  198I3C     H5 4553   1.786  -0.209   6.378
  198I3C     N0 4554   2.050  -0.999   6.261
  199I3C     I0 4555   0.258   0.278   2.398
  199I3C     I1 4556  -0.042   0.760   2.605
  199I3C     I2 4557  -0.177   0.209   2.813
  199I3C     C0 4558  -0.001   0.554   2.613
  199I3C     C1 4559   0.036   0.279   2.606
  199I3C     C2 4560  -0.082   0.471   2.691
  199I3C     C3 4561   0.105   0.503   2.536
  199I3C     C4 4562  -0.062   0.334   2.689
  199I3C     C5 4563   0.119   0.363   2.530
  199I3C     C6 4564  -0.190   0.534   2.776
  199I3C     C7 4565   0.053   0.129   2.596
  199I3C     O0 4566  -0.143   0.577   2.890
  199I3C     O1 4567   0.144   0.070   2.651
  199I3C     O2 4568  -0.305   0.541   2.741
  199I3C     O3 4569  -0.039   0.073   2.523
  199I3C     O4 4570  -0.038   1.404   2.507
  199I3C     H0 4571  -0.199   0.624   2.926
  199I3C     H1 4572  -0.024  -0.007   2.516
  199I3C     H2 4573   0.176   0.672   2.463
  199I3C     H3 4574   0.254   0.553   2.416
  199I3C     H4 4575  -0.095   1.397   2.444
  199I3C     H5 4576  -0.075   1.378   2.579
  199I3C     N0 4577   0.189   0.587   2.463
  200I3C     I0 4578   0.258   0.278   4.297
  200I3C     I1 4579  -0.042   0.760   4.504
  200I3C     I2 4580  -0.177   0.209   4.712
  200I3C     C0 4581  -0.001   0.554   4.512
  200I3C     C1 4582   0.036   0.279   4.505
  200I3C     C2 4583  -0.082   0.471   4.590
  200I3C     C3 4584   0.105   0.503   4.435
  200I3C     C4 4585  -0.062   0.334   4.588
  200I3C     C5 4586   0.119   0.363   4.430
  200I3C     C6 4587  -0.190   0.534   4.676
  200I3C     C7 4588   0.053   0.129   4.496
  200I3C     O0 4589  -0.143   0.577   4.789
  200I3C     O1 4590   0.144   0.070   4.550
  200I3C     O2 4591  -0.305   0.541   4.640
  200I3C     O3 4592  -0.039   0.073   4.422
  200I3C     O4 4593  -0.038   1.404   4.406
  200I3C     H0 4594  -0.199   0.624   4.825
  200I3C     H1 4595  -0.024  -0.007   4.415
  200I3C     H2 4596   0.176   0.672   4.363
  200I3C     H3 4597   0.254   0.553   4.315
  200I3C     H4 4598  -0.095   1.397   4.343
  200I3C     H5 4599  -0.075   1.378   4.478
  200I3C     N0 4600   0.189   0.587   4.362
  201I3C     I0 4601   0.258   0.278   6.196
  201I3C     I1 4602  -0.042   0.760   6.403
  201I3C     I2 4603  -0.177   0.209   6.611
  201I3C     C0 4604  -0.001   0.554   6.411
  201I3C     C1 4605   0.036   0.279   6.404
  201I3C     C2 4606  -0.082   0.471   6.489
  201I3C     C3 4607   0.105   0.503   6.335
  201I3C     C4 4608  -0.062   0.334   6.487
  201I3C     C5 4609   0.119   0.363   6.329
  201I3C     C6 4610  -0.190   0.534   6.575
  201I3C     C7 4611   0.053   0.129   6.395
  201I3C     O0 4612  -0.143   0.577   6.688
  201I3C     O1 4613   0.144   0.070   6.449
  201I3C     O2 4614  -0.305   0.541   6.539
  201I3C     O3 4615  -0.039   0.073   6.321
  201I3C     O4 4616  -0.038   1.404   6.305
  201I3C     H0 4617  -0.199   0.624   6.725
  201I3C     H1 4618  -0.024  -0.007   6.315
  201I3C     H2 4619   0.176   0.672   6.262
  201I3C     H3 4620   0.254   0.553   6.215
  201I3C     H4 4621  -0.095   1.397   6.242
  201I3C     H5 4622  -0.075   1.378   6.378
  201I3C     N0 4623   0.189   0.587   6.261
  202I3C     I0 4624   1.188   0.278   2.398
  202I3C     I1 4625   0.888   0.760   2.605
  202I3C     I2 4626   0.753   0.209   2.813
  202I3C     C0 4627   0.929   0.554   2.613
  202I3C     C1 4628   0.967   0.279   2.606
  202I3C     C2 4629   0.849   0.471   2.691
  202I3C     C3 4630   1.036   0.503   2.536
  202I3C     C4 4631   0.868   0.334   2.689
  202I3C     C5 4632   1.049   0.363   2.530
  202I3C     C6 4633   0.741   0.534   2.776
  202I3C     C7 4634   0.983   0.129   2.596
  202I3C     O0 4635   0.787   0.577   2.890
  202I3C     O1 4636   1.075   0.070   2.651
  202I3C     O2 4637   0.625   0.541   2.741
  202I3C     O3 4638   0.891   0.073   2.523
  202I3C     O4 4639   0.892   1.404   2.507
  202I3C     H0 4640   0.731   0.624   2.926
  202I3C     H1 4641   0.907  -0.007   2.516
  202I3C     H2 4642   1.107   0.672   2.463
  202I3C     H3 4643   1.184   0.553   2.416
  202I3C     H4 4644   0.835   1.397   2.444
  202I3C     H5 4645   0.856   1.378   2.579
  202I3C     N0 4646   1.120   0.587   2.463
  203I3C     I0 4647   1.188   0.278   4.297
  203I3C     I1 4648   0.888   0.760   4.504
  203I3C     I2 4649   0.753   0.209   4.712
  203I3C     C0 4650   0.929   0.554   4.512
  203I3C     C1 4651   0.967   0.279   4.505
  203I3C     C2 4652   0.849   0.471   4.590
  203I3C     C3 4653   1.036   0.503   4.435
  203I3C     C4 4654   0.868   0.334   4.588
  203I3C     C5 4655   1.049   0.363   4.430
  203I3C     C6 4656   0.741   0.534   4.676
  203I3C     C7 4657   0.983   0.129   4.496
  203I3C     O0 4658   0.787   0.577   4.789
  203I3C     O1 4659   1.075   0.070   4.550
  203I3C     O2 4660   0.625   0.541   4.640
  203I3C     O3 4661   0.891   0.073   4.422
  203I3C     O4 4662   0.892   1.404   4.406
  203I3C     H0 4663   0.731   0.624   4.825
  203I3C     H1 4664   0.907  -0.007   4.415
  203I3C     H2 4665   1.107   0.672   4.363
  203I3C     H3 4666   1.184   0.553   4.315
  203I3C     H4 4667   0.835   1.397   4.343
  203I3C     H5 4668   0.856   1.378   4.478
  203I3C     N0 4669   1.120   0.587   4.362
  204I3C     I0 4670   1.188   0.278   6.196
  204I3C     I1 4671   0.888   0.760   6.403
  204I3C     I2 4672   0.753   0.209   6.611
  204I3C     C0 4673   0.929   0.554   6.411
  204I3C     C1 4674   0.967   0.279   6.404
  204I3C     C2 4675   0.849   0.471   6.489
  204I3C     C3 4676   1.036   0.503   6.335
  204I3C     C4 4677   0.868   0.334   6.487
  204I3C     C5 4678   1.049   0.363   6.329
  204I3C     C6 4679   0.741   0.534   6.575
  204I3C     C7 4680   0.983   0.129   6.395
  204I3C     O0 4681   0.787   0.577   6.688
  204I3C     O1 4682   1.075   0.070   6.449
  204I3C     O2 4683   0.625   0.541   6.539
  204I3C     O3 4684   0.891   0.073   6.321
  204I3C     O4 4685   0.892   1.404   6.305
  204I3C     H0 4686   0.731   0.624   6.725
  204I3C     H1 4687   0.907  -0.007   6.315
  204I3C     H2 4688   1.107   0.672   6.262
  204I3C     H3 4689   1.184   0.553   6.215
  204I3C     H4 4690   0.835   1.397   6.242
  204I3C     H5 4691   0.856   1.378   6.378
  204I3C     N0 4692   1.120   0.587   6.261
  205I3C     I0 4693   2.119   0.278   2.398
  205I3C     I1 4694   1.819   0.760   2.605
  205I3C     I2 4695   1.684   0.209   2.813
  205I3C     C0 4696   1.860   0.554   2.613
  205I3C     C1 4697   1.897   0.279   2.606
  205I3C     C2 4698   1.779   0.471   2.691
  205I3C     C3 4699   1.966   0.503   2.536
  205I3C     C4 4700   1.799   0.334   2.689
  205I3C     C5 4701   1.980   0.363   2.530
  205I3C     C6 4702   1.671   0.534   2.776
  205I3C     C7 4703   1.914   0.129   2.596
  205I3C     O0 4704   1.718   0.577   2.890
  205I3C     O1 4705   2.005   0.070   2.651
  205I3C     O2 4706   1.556   0.541   2.741
  205I3C     O3 4707   1.822   0.073   2.523
  205I3C     O4 4708   1.823   1.404   2.507
  205I3C     H0 4709   1.662   0.624   2.926
  205I3C     H1 4710   1.837  -0.007   2.516
  205I3C     H2 4711   2.037   0.672   2.463
  205I3C     H3 4712   2.114   0.553   2.416
  205I3C     H4 4713   1.765   1.397   2.444
  205I3C     H5 4714   1.786   1.378   2.579
  205I3C     N0 4715   2.050   0.587   2.463
  206I3C     I0 4716   2.119   0.278   4.297
  206I3C     I1 4717   1.819   0.760   4.504
  206I3C     I2 4718   1.684   0.209   4.712
  206I3C     C0 4719   1.860   0.554   4.512
  206I3C     C1 4720   1.897   0.279   4.505
  206I3C     C2 4721   1.779   0.471   4.590
  206I3C     C3 4722   1.966   0.503   4.435
  206I3C     C4 4723   1.799   0.334   4.588
  206I3C     C5 4724   1.980   0.363   4.430
  206I3C     C6 4725   1.671   0.534   4.676
  206I3C     C7 4726   1.914   0.129   4.496
  206I3C     O0 4727   1.718   0.577   4.789
  206I3C     O1 4728   2.005   0.070   4.550
  206I3C     O2 4729   1.556   0.541   4.640
  206I3C     O3 4730   1.822   0.073   4.422
  206I3C     O4 4731   1.823   1.404   4.406
  206I3C     H0 4732   1.662   0.624   4.825
  206I3C     H1 4733   1.837  -0.007   4.415
  206I3C     H2 4734   2.037   0.672   4.363
  206I3C     H3 4735   2.114   0.553   4.315
  206I3C     H4 4736   1.765   1.397   4.343
  206I3C     H5 4737   1.786   1.378   4.478
  206I3C     N0 4738   2.050   0.587   4.362
  207I3C     I0 4739   2.119   0.278   6.196
  207I3C     I1 4740   1.819   0.760   6.403
  207I3C     I2 4741   1.684   0.209   6.611
  207I3C     C0 4742   1.860   0.554   6.411
  207I3C     C1 4743   1.897   0.279   6.404
  207I3C     C2 4744   1.779   0.471   6.489
  207I3C     C3 4745   1.966   0.503   6.335
  207I3C     C4 4746   1.799   0.334   6.487
  207I3C     C5 4747   1.980   0.363   6.329
  207I3C     C6 4748   1.671   0.534   6.575
  207I3C     C7 4749   1.914   0.129   6.395
  207I3C     O0 4750   1.718   0.577   6.688
  207I3C     O1 4751   2.005   0.070   6.449
  207I3C     O2 4752   1.556   0.541   6.539
  207I3C     O3 4753   1.822   0.073   6.321
  207I3C     O4 4754   1.823   1.404   6.305
  207I3C     H0 4755   1.662   0.624   6.725
  207I3C     H1 4756   1.837  -0.007   6.315
  207I3C     H2 4757   2.037   0.672   6.262
  207I3C     H3 4758   2.114   0.553   6.215
  207I3C     H4 4759   1.765   1.397   6.242
  207I3C     H5 4760   1.786   1.378   6.378
  207I3C     N0 4761   2.050   0.587   6.261
  208I3C     I0 4762   0.258   1.865   2.398
  208I3C     I1 4763  -0.042   2.346   2.605
  208I3C     I2 4764  -0.177   1.796   2.813
  208I3C     C0 4765  -0.001   2.141   2.613
  208I3C     C1 4766   0.036   1.865   2.606
  208I3C     C2 4767  -0.082   2.058   2.691
  208I3C     C3 4768   0.105   2.089   2.536
  208I3C     C4 4769  -0.062   1.920   2.689
  208I3C     C5 4770   0.119   1.949   2.530
  208I3C     C6 4771  -0.190   2.120   2.776
  208I3C     C7 4772   0.053   1.716   2.596
  208I3C     O0 4773  -0.143   2.163   2.890
  208I3C     O1 4774   0.144   1.656   2.651
  208I3C     O2 4775  -0.305   2.127   2.741
  208I3C     O3 4776  -0.039   1.660   2.523
  208I3C     O4 4777  -0.038   2.990   2.507
  208I3C     H0 4778  -0.199   2.211   2.926
  208I3C     H1 4779  -0.024   1.579   2.516
  208I3C     H2 4780   0.176   2.258   2.463
  208I3C     H3 4781   0.254   2.140   2.416
  208I3C     H4 4782  -0.095   2.983   2.444
  208I3C     H5 4783  -0.075   2.964   2.579
  208I3C     N0 4784   0.189   2.173   2.463
  209I3C     I0 4785   0.258   1.865   4.297
  209I3C     I1 4786  -0.042   2.346   4.504
  209I3C     I2 4787  -0.177   1.796   4.712
  209I3C     C0 4788  -0.001   2.141   4.512
  209I3C     C1 4789   0.036   1.865   4.505
  209I3C     C2 4790  -0.082   2.058   4.590
  209I3C     C3 4791   0.105   2.089   4.435
  209I3C     C4 4792  -0.062   1.920   4.588
  209I3C     C5 4793   0.119   1.949   4.430
  209I3C     C6 4794  -0.190   2.120   4.676
  209I3C     C7 4795   0.053   1.716   4.496
  209I3C     O0 4796  -0.143   2.163   4.789
  209I3C     O1 4797   0.144   1.656   4.550
  209I3C     O2 4798  -0.305   2.127   4.640
  209I3C     O3 4799  -0.039   1.660   4.422
  209I3C     O4 4800  -0.038   2.990   4.406
  209I3C     H0 4801  -0.199   2.211   4.825
  209I3C     H1 4802  -0.024   1.579   4.415
  209I3C     H2 4803   0.176   2.258   4.363
  209I3C     H3 4804   0.254   2.140   4.315
  209I3C     H4 4805  -0.095   2.983   4.343
  209I3C     H5 4806  -0.075   2.964   4.478
  209I3C     N0 4807   0.189   2.173   4.362
  210I3C     I0 4808   0.258   1.865   6.196
  210I3C     I1 4809  -0.042   2.346   6.403
  210I3C     I2 4810  -0.177   1.796   6.611
  210I3C     C0 4811  -0.001   2.141   6.411
  210I3C     C1 4812   0.036   1.865   6.404
  210I3C     C2 4813  -0.082   2.058   6.489
  210I3C     C3 4814   0.105   2.089   6.335
  210I3C     C4 4815  -0.062   1.920   6.487
  210I3C     C5 4816   0.119   1.949   6.329
  210I3C     C6 4817  -0.190   2.120   6.575
  210I3C     C7 4818   0.053   1.716   6.395
  210I3C     O0 4819  -0.143   2.163   6.688
  210I3C     O1 4820   0.144   1.656   6.449
  210I3C     O2 4821  -0.305   2.127   6.539
  210I3C     O3 4822  -0.039   1.660   6.321
  210I3C     O4 4823  -0.038   2.990   6.305
  210I3C     H0 4824  -0.199   2.211   6.725
  210I3C     H1 4825  -0.024   1.579   6.315
  210I3C     H2 4826   0.176   2.258   6.262
  210I3C     H3 4827   0.254   2.140   6.215
  210I3C     H4 4828  -0.095   2.983   6.242
  210I3C     H5 4829  -0.075   2.964   6.378
  210I3C     N0 4830   0.189   2.173   6.261
  211I3C     I0 4831   1.188   1.865   2.398
  211I3C     I1 4832   0.888   2.346   2.605
  211I3C     I2 4833   0.753   1.796   2.813
  211I3C     C0 4834   0.929   2.141   2.613
  211I3C     C1 4835   0.967   1.865   2.606
  211I3C     C2 4836   0.849   2.058   2.691
  211I3C     C3 4837   1.036   2.089   2.536
  211I3C     C4 4838   0.868   1.920   2.689
  211I3C     C5 4839   1.049   1.949   2.530
  211I3C     C6 4840   0.741   2.120   2.776
  211I3C     C7 4841   0.983   1.716   2.596
  211I3C     O0 4842   0.787   2.163   2.890
  211I3C     O1 4843   1.075   1.656   2.651
  211I3C     O2 4844   0.625   2.127   2.741
  211I3C     O3 4845   0.891   1.660   2.523
  211I3C     O4 4846   0.892   2.990   2.507
  211I3C     H0 4847   0.731   2.211   2.926
  211I3C     H1 4848   0.907   1.579   2.516
  211I3C     H2 4849   1.107   2.258   2.463
  211I3C     H3 4850   1.184   2.140   2.416
  211I3C     H4 4851   0.835   2.983   2.444
  211I3C     H5 4852   0.856   2.964   2.579
  211I3C     N0 4853   1.120   2.173   2.463
  212I3C     I0 4854   1.188   1.865   4.297
  212I3C     I1 4855   0.888   2.346   4.504
  212I3C     I2 4856   0.753   1.796   4.712
  212I3C     C0 4857   0.929   2.141   4.512
  212I3C     C1 4858   0.967   1.865   4.505
  212I3C     C2 4859   0.849   2.058   4.590
  212I3C     C3 4860   1.036   2.089   4.435
  212I3C     C4 4861   0.868   1.920   4.588
  212I3C     C5 4862   1.049   1.949   4.430
  212I3C     C6 4863   0.741   2.120   4.676
  212I3C     C7 4864   0.983   1.716   4.496
  212I3C     O0 4865   0.787   2.163   4.789
  212I3C     O1 4866   1.075   1.656   4.550
  212I3C     O2 4867   0.625   2.127   4.640
  212I3C     O3 4868   0.891   1.660   4.422
  212I3C     O4 4869   0.892   2.990   4.406
  212I3C     H0 4870   0.731   2.211   4.825
  212I3C     H1 4871   0.907   1.579   4.415
  212I3C     H2 4872   1.107   2.258   4.363
  212I3C     H3 4873   1.184   2.140   4.315
  212I3C     H4 4874   0.835   2.983   4.343
  212I3C     H5 4875   0.856   2.964   4.478
  212I3C     N0 4876   1.120   2.173   4.362
  213I3C     I0 4877   1.188   1.865   6.196
  213I3C     I1 4878   0.888   2.346   6.403
  213I3C     I2 4879   0.753   1.796   6.611
  213I3C     C0 4880   0.929   2.141   6.411
  213I3C     C1 4881   0.967   1.865   6.404
  213I3C     C2 4882   0.849   2.058   6.489
  213I3C     C3 4883   1.036   2.089   6.335
  213I3C     C4 4884   0.868   1.920   6.487
  213I3C     C5 4885   1.049   1.949   6.329
  213I3C     C6 4886   0.741   2.120   6.575
  213I3C     C7 4887   0.983   1.716   6.395
  213I3C     O0 4888   0.787   2.163   6.688
  213I3C     O1 4889   1.075   1.656   6.449
  213I3C     O2 4890   0.625   2.127   6.539
  213I3C     O3 4891   0.891   1.660   6.321
  213I3C     O4 4892   0.892   2.990   6.305
  213I3C     H0 4893   0.731   2.211   6.725
  213I3C     H1 4894   0.907   1.579   6.315
  213I3C     H2 4895   1.107   2.258   6.262
  213I3C     H3 4896   1.184   2.140   6.215
  213I3C     H4 4897   0.835   2.983   6.242
  213I3C     H5 4898   0.856   2.964   6.378
  213I3C     N0 4899   1.120   2.173   6.261
  214I3C     I0 4900   2.119   1.865   2.398
  214I3C     I1 4901   1.819   2.346   2.605
  214I3C     I2 4902   1.684   1.796   2.813
  214I3C     C0 4903   1.860   2.141   2.613
  214I3C     C1 4904   1.897   1.865   2.606
  214I3C     C2 4905   1.779   2.058   2.691
  214I3C     C3 4906   1.966   2.089   2.536
  214I3C     C4 4907   1.799   1.920   2.689
  214I3C     C5 4908   1.980   1.949   2.530
  214I3C     C6 4909   1.671   2.120   2.776
  214I3C     C7 4910   1.914   1.716   2.596
  214I3C     O0 4911   1.718   2.163   2.890
  214I3C     O1 4912   2.005   1.656   2.651
  214I3C     O2 4913   1.556   2.127   2.741
  214I3C     O3 4914   1.822   1.660   2.523
  214I3C     O4 4915   1.823   2.990   2.507
  214I3C     H0 4916   1.662   2.211   2.926
  214I3C     H1 4917   1.837   1.579   2.516
  214I3C     H2 4918   2.037   2.258   2.463
  214I3C     H3 4919   2.114   2.140   2.416
  214I3C     H4 4920   1.765   2.983   2.444
  214I3C     H5 4921   1.786   2.964   2.579
  214I3C     N0 4922   2.050   2.173   2.463
  215I3C     I0 4923   2.119   1.865   4.297
  215I3C     I1 4924   1.819   2.346   4.504
  215I3C     I2 4925   1.684   1.796   4.712
  215I3C     C0 4926   1.860   2.141   4.512
  215I3C     C1 4927   1.897   1.865   4.505
  215I3C     C2 4928   1.779   2.058   4.590
  215I3C     C3 4929   1.966   2.089   4.435
  215I3C     C4 4930   1.799   1.920   4.588
  215I3C     C5 4931   1.980   1.949   4.430
  215I3C     C6 4932   1.671   2.120   4.676
  215I3C     C7 4933   1.914   1.716   4.496
  215I3C     O0 4934   1.718   2.163   4.789
  215I3C     O1 4935   2.005   1.656   4.550
  215I3C     O2 4936   1.556   2.127   4.640
  215I3C     O3 4937   1.822   1.660   4.422
  215I3C     O4 4938   1.823   2.990   4.406
  215I3C     H0 4939   1.662   2.211   4.825
  215I3C     H1 4940   1.837   1.579   4.415
  215I3C     H2 4941   2.037   2.258   4.363
  215I3C     H3 4942   2.114   2.140   4.315
  215I3C     H4 4943   1.765   2.983   4.343
  215I3C     H5 4944   1.786   2.964   4.478
  215I3C     N0 4945   2.050   2.173   4.362
  216I3C     I0 4946   2.119   1.865   6.196
  216I3C     I1 4947   1.819   2.346   6.403
  216I3C     I2 4948   1.684   1.796   6.611
  216I3C     C0 4949   1.860   2.141   6.411
  216I3C     C1 4950   1.897   1.865   6.404
  216I3C     C2 4951   1.779   2.058   6.489
  216I3C     C3 4952   1.966   2.089   6.335
  216I3C     C4 4953   1.799   1.920   6.487
  216I3C     C5 4954   1.980   1.949   6.329
  216I3C     C6 4955   1.671   2.120   6.575
  216I3C     C7 4956   1.914   1.716   6.395
  216I3C     O0 4957   1.718   2.163   6.688
  216I3C     O1 4958   2.005   1.656   6.449
  216I3C     O2 4959   1.556   2.127   6.539
  216I3C     O3 4960   1.822   1.660   6.321
  216I3C     O4 4961   1.823   2.990   6.305
  216I3C     H0 4962   1.662   2.211   6.725
  216I3C     H1 4963   1.837   1.579   6.315
  216I3C     H2 4964   2.037   2.258   6.262
  216I3C     H3 4965   2.114   2.140   6.215
  216I3C     H4 4966   1.765   2.983   6.242
  216I3C     H5 4967   1.786   2.964   6.378
  216I3C     N0 4968   2.050   2.173   6.261
   2.79132   4.75869   5.69772
